
  ___ ___ ___ _ _ _  
 |   |   |_  | | | | 
 | | | | | . | | | | 
 |__ |  _|___|_____|  24.1.0
 |___|_|             

User:   husi@vera-r03-14
Date:   Wed Feb 26 19:44:19 2025
Arch:   x86_64
Pid:    2286198
CWD:    /cephyr/users/husi/Vera/A3
Python: 3.11.3
gpaw:   /apps/Arch/software/GPAW/24.1.0-foss-2023a/lib/python3.11/site-packages/gpaw
_gpaw:  /apps/Arch/software/GPAW/24.1.0-foss-2023a/lib/python3.11/site-packages/
        _gpaw.cpython-311-x86_64-linux-gnu.so
ase:    /apps/Arch/software/ASE/3.22.1-gfbf-2023a/lib/python3.11/site-packages/ase (version 3.22.1)
numpy:  /apps/Arch/software/SciPy-bundle/2023.07-gfbf-2023a/lib/python3.11/site-packages/numpy (version 1.25.1)
scipy:  /apps/Arch/software/SciPy-bundle/2023.07-gfbf-2023a/lib/python3.11/site-packages/scipy (version 1.11.1)
libxc:  6.2.2
units:  Angstrom and eV
cores: 32
OpenMP: False
OMP_NUM_THREADS: 1

Input parameters:
  kpts: [6 6 6]
  mode: {ecut: 350.0,
         name: pw}
  occupations: {fixmagmom: False,
                name: fermi-dirac,
                width: 0.01}
  xc: PBE

System changes: positions, numbers, cell, pbc, initial_charges, initial_magmoms 

Initialize ...

species:
  Na:
    name: Sodium
    id: d7ecbc49209718622bcbe287195dca2a
    Z: 11.0
    valence: 7
    core: 4
    charge: 0.0
    file: /apps/Common/software/GPAW-setups/24.1.0/Na.PBE.gz
    compensation charges: {type: gauss,
                           rc: 0.37,
                           lmax: 2}
    cutoffs: {filter: 2.17,
              core: 2.59}
    valence states:
      #              energy  rcut
      - 3s(1.00)    -2.744   1.201
      - 2p(6.00)   -28.672   1.217
      - 3p(0.00)    -0.743   1.217
      -  s          24.468   1.201
      -  d           0.000   1.238
  
    # Using partial waves for Na as LCAO basis

Reference energy: -4418.610498  # eV

Spin-paired calculation

Convergence criteria:
 Maximum [total energy] change in last 3 cyles: 0.0005 eV / valence electron
 Maximum integral of absolute [dens]ity change: 0.0001 electrons / valence electron
 Maximum integral of absolute [eigenst]ate change: 4e-08 eV^2 / valence electron
 Maximum number of scf [iter]ations: 333
 (Square brackets indicate name in SCF output, whereas a 'c' in
 the SCF output indicates the quantity has converged.)

Symmetries present (total): 48

  ( 1  1  1)  ( 1  1  1)  ( 1  1  1)  ( 1  1  1)  ( 1  1  1)  ( 1  1  1)
  ( 0  0 -1)  ( 0  0 -1)  ( 0 -1  0)  ( 0 -1  0)  (-1  0  0)  (-1  0  0)
  ( 0 -1  0)  (-1  0  0)  ( 0  0 -1)  (-1  0  0)  ( 0  0 -1)  ( 0 -1  0)

  ( 1  0  0)  ( 1  0  0)  ( 1  0  0)  ( 1  0  0)  ( 1  0  0)  ( 1  0  0)
  ( 0  1  0)  ( 0  1  0)  ( 0  0  1)  ( 0  0  1)  (-1 -1 -1)  (-1 -1 -1)
  ( 0  0  1)  (-1 -1 -1)  ( 0  1  0)  (-1 -1 -1)  ( 0  1  0)  ( 0  0  1)

  ( 0  1  0)  ( 0  1  0)  ( 0  1  0)  ( 0  1  0)  ( 0  1  0)  ( 0  1  0)
  ( 1  0  0)  ( 1  0  0)  ( 0  0  1)  ( 0  0  1)  (-1 -1 -1)  (-1 -1 -1)
  ( 0  0  1)  (-1 -1 -1)  ( 1  0  0)  (-1 -1 -1)  ( 1  0  0)  ( 0  0  1)

  ( 0  0  1)  ( 0  0  1)  ( 0  0  1)  ( 0  0  1)  ( 0  0  1)  ( 0  0  1)
  ( 1  0  0)  ( 1  0  0)  ( 0  1  0)  ( 0  1  0)  (-1 -1 -1)  (-1 -1 -1)
  ( 0  1  0)  (-1 -1 -1)  ( 1  0  0)  (-1 -1 -1)  ( 1  0  0)  ( 0  1  0)

  ( 0  0 -1)  ( 0  0 -1)  ( 0  0 -1)  ( 0  0 -1)  ( 0  0 -1)  ( 0  0 -1)
  ( 1  1  1)  ( 1  1  1)  ( 0 -1  0)  ( 0 -1  0)  (-1  0  0)  (-1  0  0)
  ( 0 -1  0)  (-1  0  0)  ( 1  1  1)  (-1  0  0)  ( 1  1  1)  ( 0 -1  0)

  ( 0 -1  0)  ( 0 -1  0)  ( 0 -1  0)  ( 0 -1  0)  ( 0 -1  0)  ( 0 -1  0)
  ( 1  1  1)  ( 1  1  1)  ( 0  0 -1)  ( 0  0 -1)  (-1  0  0)  (-1  0  0)
  ( 0  0 -1)  (-1  0  0)  ( 1  1  1)  (-1  0  0)  ( 1  1  1)  ( 0  0 -1)

  (-1  0  0)  (-1  0  0)  (-1  0  0)  (-1  0  0)  (-1  0  0)  (-1  0  0)
  ( 1  1  1)  ( 1  1  1)  ( 0  0 -1)  ( 0  0 -1)  ( 0 -1  0)  ( 0 -1  0)
  ( 0  0 -1)  ( 0 -1  0)  ( 1  1  1)  ( 0 -1  0)  ( 1  1  1)  ( 0  0 -1)

  (-1 -1 -1)  (-1 -1 -1)  (-1 -1 -1)  (-1 -1 -1)  (-1 -1 -1)  (-1 -1 -1)
  ( 1  0  0)  ( 1  0  0)  ( 0  1  0)  ( 0  1  0)  ( 0  0  1)  ( 0  0  1)
  ( 0  1  0)  ( 0  0  1)  ( 1  0  0)  ( 0  0  1)  ( 1  0  0)  ( 0  1  0)

216 k-points: 6 x 6 x 6 Monkhorst-Pack grid
14 k-points in the irreducible part of the Brillouin zone
       k-points in crystal coordinates                weights
   0:     0.08333333    0.08333333   -0.08333333          6/216
   1:     0.25000000   -0.08333333   -0.08333333          8/216
   2:     0.25000000    0.08333333   -0.08333333         24/216
   3:     0.25000000    0.25000000   -0.25000000          6/216
   4:     0.25000000    0.25000000    0.25000000          2/216
   5:     0.41666667   -0.08333333   -0.08333333         24/216
   6:     0.41666667    0.08333333   -0.25000000         24/216
   7:     0.41666667    0.08333333   -0.08333333         24/216
   8:     0.41666667    0.25000000   -0.25000000         24/216
   9:     0.41666667    0.25000000    0.25000000         24/216
          ...
  13:     0.41666667    0.41666667    0.41666667          8/216

Wave functions: Plane wave expansion
  Cutoff energy: 350.000 eV
  Number of coefficients (min, max): 534, 567
  Pulay-stress correction: 0.000000 eV/Ang^3 (de/decut=0.000000)
  Using FFTW library
  ScaLapack parameters: grid=1x1, blocksize=None
  Wavefunction extrapolation:
    Improved wavefunction reuse through dual PAW basis 

Occupation numbers: Fermi-Dirac:
  width: 0.0100  # eV
 

Eigensolver
   Davidson(niter=2) 

Densities:
  Coarse grid: 16*16*16 grid
  Fine grid: 32*32*32 grid
  Total Charge: 0.000000 

Density mixing:
  Method: separate
  Backend: pulay
  Linear mixing parameter: 0.05
  old densities: 5
  Damping of long wavelength oscillations: 50 

Hamiltonian:
  XC and Coulomb potentials evaluated on a 32*32*32 grid
  Using the PBE Exchange-Correlation functional
  External potential:
    NoExternalPotential
 

XC parameters: PBE with 2 nearest neighbor stencil

Memory estimate:
  Process memory now: 157.58 MiB
  Calculator: 2.54 MiB
    Density: 1.71 MiB
      Arrays: 0.81 MiB
      Localized functions: 0.58 MiB
      Mixer: 0.31 MiB
    Hamiltonian: 0.54 MiB
      Arrays: 0.53 MiB
      XC: 0.00 MiB
      Poisson: 0.00 MiB
      vbar: 0.01 MiB
    Wavefunctions: 0.29 MiB
      Arrays psit_nG: 0.02 MiB
      Eigensolver: 0.05 MiB
      Projections: 0.00 MiB
      Projectors: 0.06 MiB
      PW-descriptor: 0.16 MiB

Total number of cores used: 32
Parallelization over k-points: 8
Parallelization over states: 4

Number of atoms: 1
Number of atomic orbitals: 7
Number of bands in calculation: 7
Number of valence electrons: 7
Bands to converge: occupied

... initialized

Initializing position-dependent things.

Density initialized from atomic densities
Creating initial wave functions:
  7 bands from LCAO basis set

                
                
                
       Na       
                
                
                
                

Positions:
   0 Na     0.000000    0.000000    0.000000    ( 0.0000,  0.0000,  0.0000)

Unit cell:
           periodic     x           y           z      points  spacing
  1. axis:    yes   -2.096600    2.096600    2.096600    16     0.1853
  2. axis:    yes    2.096600   -2.096600    2.096600    16     0.1853
  3. axis:    yes    2.096600    2.096600   -2.096600    16     0.1853

  Lengths:   3.631418   3.631418   3.631418
  Angles:  109.471221 109.471221 109.471221

Effective grid spacing dv^(1/3) = 0.2080

     iter     time        total  log10-change:
                         energy   eigst   dens
iter:   1 19:44:20    -1.337087
iter:   2 19:44:20    -1.337625   -1.96  -1.69
iter:   3 19:44:20    -1.333226   -2.69  -1.71
iter:   4 19:44:20    -1.335068   -3.66  -2.42
iter:   5 19:44:20    -1.332801c  -3.54  -2.62
iter:   6 19:44:20    -1.332648c  -5.30  -3.18
iter:   7 19:44:20    -1.332655c  -6.76  -3.50
iter:   8 19:44:20    -1.332609c  -5.46  -3.47
iter:   9 19:44:20    -1.332609c  -7.27  -4.69c
iter:  10 19:44:20    -1.332609c  -8.18c -5.50c

Converged after 10 iterations.

Dipole moment: (0.000000, 0.000000, 0.000000) |e|*Ang

Energy contributions relative to reference atoms: (reference = -4418.610498)

Kinetic:         +1.398546
Potential:       -1.217224
External:        +0.000000
XC:              -1.484276
Entropy (-ST):   -0.001414
Local:           -0.028947
SIC:             +0.000000
--------------------------
Free energy:     -1.333316
Extrapolated:    -1.332609

Showing only first 2 kpts
 Kpt  Band  Eigenvalues  Occupancy
  0     1    -24.62719    2.00000
  0     2    -24.62719    2.00000
  0     3     -2.75346    2.00000
  0     4     10.40022    0.00000

  1     1    -24.62721    2.00000
  1     2    -24.62721    2.00000
  1     3     -2.26616    2.00000
  1     4      8.32130    0.00000


Fermi level: 0.10703

No gap
Timing:                              incl.     excl.
-----------------------------------------------------------
Hamiltonian:                         0.028     0.000   0.0% |
 Atomic:                             0.020     0.020   2.4% ||
  XC Correction:                     0.000     0.000   0.0% |
 Calculate atomic Hamiltonians:      0.000     0.000   0.0% |
 Communicate:                        0.000     0.000   0.0% |
 Initialize Hamiltonian:             0.000     0.000   0.0% |
 Poisson:                            0.000     0.000   0.0% |
 XC 3D grid:                         0.007     0.007   0.9% |
LCAO initialization:                 0.045     0.008   0.9% |
 LCAO eigensolver:                   0.025     0.000   0.0% |
  Calculate projections:             0.000     0.000   0.0% |
  DenseAtomicCorrection:             0.000     0.000   0.0% |
  Distribute overlap matrix:         0.000     0.000   0.0% |
  Orbital Layouts:                   0.006     0.006   0.8% |
  Potential matrix:                  0.017     0.017   2.1% ||
  Sum over cells:                    0.001     0.001   0.1% |
 LCAO to grid:                       0.003     0.003   0.3% |
 Set positions (LCAO WFS):           0.010     0.001   0.1% |
  Basic WFS set positions:           0.001     0.001   0.1% |
  Basis functions set positions:     0.000     0.000   0.0% |
  P tci:                             0.001     0.001   0.2% |
  ST tci:                            0.003     0.003   0.3% |
  mktci:                             0.004     0.004   0.5% |
PWDescriptor:                        0.041     0.041   5.0% |-|
SCF-cycle:                           0.342     0.037   4.5% |-|
 Davidson:                           0.037     0.006   0.7% |
  Apply H:                           0.002     0.001   0.2% |
   HMM T:                            0.000     0.000   0.0% |
  Subspace diag:                     0.008     0.000   0.0% |
   calc_h_matrix:                    0.003     0.002   0.2% |
    Apply H:                         0.001     0.001   0.1% |
     HMM T:                          0.000     0.000   0.0% |
   diagonalize:                      0.004     0.004   0.4% |
   rotate_psi:                       0.001     0.001   0.2% |
  calc. matrices:                    0.014     0.012   1.5% ||
   Apply H:                          0.002     0.001   0.2% |
    HMM T:                           0.000     0.000   0.0% |
  diagonalize:                       0.004     0.004   0.4% |
  rotate_psi:                        0.004     0.004   0.5% |
 Density:                            0.033     0.000   0.0% |
  Atomic density matrices:           0.005     0.005   0.6% |
  Mix:                               0.006     0.006   0.7% |
  Multipole moments:                 0.000     0.000   0.0% |
  Pseudo density:                    0.022     0.002   0.2% |
   Symmetrize density:               0.021     0.021   2.5% ||
 Hamiltonian:                        0.228     0.001   0.1% |
  Atomic:                            0.176     0.176  21.4% |--------|
   XC Correction:                    0.000     0.000   0.0% |
  Calculate atomic Hamiltonians:     0.002     0.002   0.2% |
  Communicate:                       0.000     0.000   0.0% |
  Poisson:                           0.000     0.000   0.1% |
  XC 3D grid:                        0.048     0.048   5.8% |-|
 Orthonormalize:                     0.008     0.000   0.0% |
  calc_s_matrix:                     0.000     0.000   0.0% |
  inverse-cholesky:                  0.007     0.007   0.8% |
  projections:                       0.000     0.000   0.0% |
  rotate_psi_s:                      0.000     0.000   0.0% |
Set symmetry:                        0.011     0.011   1.3% ||
Other:                               0.356     0.356  43.2% |----------------|
-----------------------------------------------------------
Total:                                         0.823 100.0%

Memory usage: 163.58 MiB
Date: Wed Feb 26 19:44:20 2025
