
  ___ ___ ___ _ _ _  
 |   |   |_  | | | | 
 | | | | | . | | | | 
 |__ |  _|___|_____|  24.1.0
 |___|_|             

User:   husi@vera-r03-14
Date:   Wed Feb 26 19:44:20 2025
Arch:   x86_64
Pid:    2286198
CWD:    /cephyr/users/husi/Vera/A3
Python: 3.11.3
gpaw:   /apps/Arch/software/GPAW/24.1.0-foss-2023a/lib/python3.11/site-packages/gpaw
_gpaw:  /apps/Arch/software/GPAW/24.1.0-foss-2023a/lib/python3.11/site-packages/
        _gpaw.cpython-311-x86_64-linux-gnu.so
ase:    /apps/Arch/software/ASE/3.22.1-gfbf-2023a/lib/python3.11/site-packages/ase (version 3.22.1)
numpy:  /apps/Arch/software/SciPy-bundle/2023.07-gfbf-2023a/lib/python3.11/site-packages/numpy (version 1.25.1)
scipy:  /apps/Arch/software/SciPy-bundle/2023.07-gfbf-2023a/lib/python3.11/site-packages/scipy (version 1.11.1)
libxc:  6.2.2
units:  Angstrom and eV
cores: 32
OpenMP: False
OMP_NUM_THREADS: 1

Input parameters:
  kpts: [6 6 1]
  mode: {ecut: 350.0,
         name: pw}
  occupations: {fixmagmom: False,
                name: fermi-dirac,
                width: 0.01}
  xc: PBE

System changes: positions, numbers, cell, pbc, initial_charges, initial_magmoms 

Initialize ...

species:
  Na:
    name: Sodium
    id: d7ecbc49209718622bcbe287195dca2a
    Z: 11.0
    valence: 7
    core: 4
    charge: 0.0
    file: /apps/Common/software/GPAW-setups/24.1.0/Na.PBE.gz
    compensation charges: {type: gauss,
                           rc: 0.37,
                           lmax: 2}
    cutoffs: {filter: 2.17,
              core: 2.59}
    valence states:
      #              energy  rcut
      - 3s(1.00)    -2.744   1.201
      - 2p(6.00)   -28.672   1.217
      - 3p(0.00)    -0.743   1.217
      -  s          24.468   1.201
      -  d           0.000   1.238
  
    # Using partial waves for Na as LCAO basis

Reference energy: -44186.104977  # eV

Spin-paired calculation

Convergence criteria:
 Maximum [total energy] change in last 3 cyles: 0.0005 eV / valence electron
 Maximum integral of absolute [dens]ity change: 0.0001 electrons / valence electron
 Maximum integral of absolute [eigenst]ate change: 4e-08 eV^2 / valence electron
 Maximum number of scf [iter]ations: 333
 (Square brackets indicate name in SCF output, whereas a 'c' in
 the SCF output indicates the quantity has converged.)

Symmetries present (total): 4

  ( 1  0  0)  ( 0  1  0)  ( 0 -1  0)  (-1  0  0)
  ( 0  1  0)  ( 1  0  0)  (-1  0  0)  ( 0 -1  0)
  ( 0  0  1)  ( 0  0  1)  ( 0  0  1)  ( 0  0  1)

36 k-points: 6 x 6 x 1 Monkhorst-Pack grid
12 k-points in the irreducible part of the Brillouin zone
       k-points in crystal coordinates                weights
   0:     0.08333333   -0.08333333    0.00000000          2/36
   1:     0.08333333    0.08333333    0.00000000          2/36
   2:     0.25000000   -0.25000000    0.00000000          2/36
   3:     0.25000000   -0.08333333    0.00000000          4/36
   4:     0.25000000    0.08333333    0.00000000          4/36
   5:     0.25000000    0.25000000    0.00000000          2/36
   6:     0.41666667   -0.41666667    0.00000000          2/36
   7:     0.41666667   -0.25000000    0.00000000          4/36
   8:     0.41666667   -0.08333333    0.00000000          4/36
   9:     0.41666667    0.08333333    0.00000000          4/36
          ...
  11:     0.41666667    0.41666667    0.00000000          2/36

Wave functions: Plane wave expansion
  Cutoff energy: 350.000 eV
  Number of coefficients (min, max): 10381, 10601
  Pulay-stress correction: 0.000000 eV/Ang^3 (de/decut=0.000000)
  Using FFTW library
  ScaLapack parameters: grid=1x1, blocksize=None
  Wavefunction extrapolation:
    Improved wavefunction reuse through dual PAW basis 

Occupation numbers: Fermi-Dirac:
  width: 0.0100  # eV
 

Eigensolver
   Davidson(niter=2) 

Densities:
  Coarse grid: 16*16*245 grid
  Fine grid: 32*32*490 grid
  Total Charge: 0.000000 

Density mixing:
  Method: separate
  Backend: pulay
  Linear mixing parameter: 0.05
  old densities: 5
  Damping of long wavelength oscillations: 50 

Hamiltonian:
  XC and Coulomb potentials evaluated on a 32*32*490 grid
  Using the PBE Exchange-Correlation functional
  External potential:
    NoExternalPotential
 

XC parameters: PBE with 2 nearest neighbor stencil

Memory estimate:
  Process memory now: 192.09 MiB
  Calculator: 47.01 MiB
    Density: 28.31 MiB
      Arrays: 12.44 MiB
      Localized functions: 11.08 MiB
      Mixer: 4.79 MiB
    Hamiltonian: 8.36 MiB
      Arrays: 8.13 MiB
      XC: 0.00 MiB
      Poisson: 0.00 MiB
      vbar: 0.22 MiB
    Wavefunctions: 10.34 MiB
      Arrays psit_nG: 2.91 MiB
      Eigensolver: 1.13 MiB
      Projections: 0.04 MiB
      Projectors: 3.38 MiB
      PW-descriptor: 2.88 MiB

Total number of cores used: 32
Parallelization over k-points: 4
Parallelization over states: 8

Number of atoms: 10
Number of atomic orbitals: 70
Number of bands in calculation: 46
Number of valence electrons: 70
Bands to converge: occupied

... initialized

Initializing position-dependent things.

Density initialized from atomic densities
Creating initial wave functions:
  46 bands from LCAO basis set

                     
                     
                     
                     
            Na       
                     
                     
                     
                     
       Na            
                     
            Na       
                     
                     
                     
                     
       Na            
                     
                     
            Na       
                     
                     
                     
       Na            
                     
                     
            Na       
                     
                     
                     
                     
       Na            
                     
            Na       
                     
                     
                     
                     
       Na            
                     
                     
                     
                     

Positions:
   0 Na     0.000000    0.000000   15.000000    ( 0.0000,  0.0000,  0.0000)
   1 Na     1.210473    1.711867   17.965040    ( 0.0000,  0.0000,  0.0000)
   2 Na    -0.000000    0.000000   20.930080    ( 0.0000,  0.0000,  0.0000)
   3 Na     1.210473    1.711867   23.895120    ( 0.0000,  0.0000,  0.0000)
   4 Na    -0.000000    0.000000   26.860161    ( 0.0000,  0.0000,  0.0000)
   5 Na     1.210473    1.711867   29.825201    ( 0.0000,  0.0000,  0.0000)
   6 Na     0.000000    0.000000   32.790241    ( 0.0000,  0.0000,  0.0000)
   7 Na     1.210473    1.711867   35.755281    ( 0.0000,  0.0000,  0.0000)
   8 Na    -0.000000    0.000000   38.720321    ( 0.0000,  0.0000,  0.0000)
   9 Na     1.210473    1.711867   41.685361    ( 0.0000,  0.0000,  0.0000)

Unit cell:
           periodic     x           y           z      points  spacing
  1. axis:    yes    3.631418    0.000000    0.000000    16     0.2140
  2. axis:    yes   -1.210473    3.423733    0.000000    16     0.2140
  3. axis:    no     0.000000   -0.000000   56.685361   245     0.2314

  Lengths:   3.631418   3.631418  56.685361
  Angles:   90.000000  90.000000 109.471221

Effective grid spacing dv^(1/3) = 0.2240

     iter     time        total  log10-change:
                         energy   eigst   dens
iter:   1 19:44:22   -13.073437
iter:   2 19:44:22   -13.085823   -1.58  -1.61
iter:   3 19:44:23   -13.062584c  -2.32  -1.66
iter:   4 19:44:23   -13.006714   -2.73  -1.66
iter:   5 19:44:24   -12.998382   -2.84  -1.82
iter:   6 19:44:24   -13.000305c  -3.32  -2.02
iter:   7 19:44:25   -12.991231c  -3.56  -2.14
iter:   8 19:44:25   -12.989818c  -4.21  -2.48
iter:   9 19:44:26   -12.991141c  -4.36  -2.55
iter:  10 19:44:26   -12.984773c  -4.74  -2.48
iter:  11 19:44:27   -12.984193c  -5.17  -3.07
iter:  12 19:44:27   -12.983416c  -5.07  -3.18
iter:  13 19:44:28   -12.983378c  -5.68  -3.33
iter:  14 19:44:28   -12.983233c  -6.29  -3.24
iter:  15 19:44:29   -12.983045c  -5.96  -3.36
iter:  16 19:44:29   -12.982993c  -6.30  -3.52
iter:  17 19:44:30   -12.982902c  -6.15  -3.47
iter:  18 19:44:30   -12.982883c  -6.35  -3.76
iter:  19 19:44:31   -12.982883c  -7.19  -3.95
iter:  20 19:44:31   -12.982880c  -7.78c -3.92
iter:  21 19:44:32   -12.982875c  -8.00c -3.99
iter:  22 19:44:32   -12.982875c  -8.36c -4.29c

Converged after 22 iterations.

Dipole moment: (-0.000000, -0.000000, 0.000007) |e|*Ang

Energy contributions relative to reference atoms: (reference = -44186.104977)

Kinetic:        +12.992747
Potential:      -11.423316
External:        +0.000000
XC:             -14.262771
Entropy (-ST):   -0.000232
Local:           -0.289420
SIC:             +0.000000
--------------------------
Free energy:    -12.982991
Extrapolated:   -12.982875

Showing only first 2 kpts
 Kpt  Band  Eigenvalues  Occupancy
  0    33     -3.72842    2.00000
  0    34     -3.39826    2.00000
  0    35     -3.01203    2.00000
  0    36     -2.52645    2.00000

  1    33     -3.60715    2.00000
  1    34     -3.27764    2.00000
  1    35     -2.89227    2.00000
  1    36     -2.40769    2.00000


Fermi level: -1.19649

No gap

Forces in eV/Ang:
  0 Na    0.00000    0.00000    0.04597
  1 Na    0.00000    0.00000   -0.04847
  2 Na    0.00000    0.00000    0.02510
  3 Na    0.00000    0.00000   -0.02998
  4 Na    0.00000    0.00000    0.02254
  5 Na    0.00000    0.00000   -0.02257
  6 Na    0.00000    0.00000    0.02993
  7 Na    0.00000    0.00000   -0.02512
  8 Na    0.00000    0.00000    0.04846
  9 Na    0.00000    0.00000   -0.04597

System changes: positions 

Initializing position-dependent things.

Density initialized from wave functions
                     
                     
                     
                     
            Na       
                     
                     
                     
                     
       Na            
                     
            Na       
                     
                     
                     
                     
       Na            
                     
                     
            Na       
                     
                     
                     
       Na            
                     
                     
            Na       
                     
                     
                     
                     
       Na            
                     
            Na       
                     
                     
                     
                     
       Na            
                     
                     
                     
                     

Positions:
   0 Na     0.000000    0.000000   15.000657    ( 0.0000,  0.0000,  0.0000)
   1 Na     1.210473    1.711867   17.964348    ( 0.0000,  0.0000,  0.0000)
   2 Na    -0.000000    0.000000   20.930439    ( 0.0000,  0.0000,  0.0000)
   3 Na     1.210473    1.711867   23.894692    ( 0.0000,  0.0000,  0.0000)
   4 Na    -0.000000    0.000000   26.860483    ( 0.0000,  0.0000,  0.0000)
   5 Na     1.210473    1.711867   29.824878    ( 0.0000,  0.0000,  0.0000)
   6 Na     0.000000    0.000000   32.790668    ( 0.0000,  0.0000,  0.0000)
   7 Na     1.210473    1.711867   35.754922    ( 0.0000,  0.0000,  0.0000)
   8 Na    -0.000000    0.000000   38.721014    ( 0.0000,  0.0000,  0.0000)
   9 Na     1.210473    1.711867   41.684705    ( 0.0000,  0.0000,  0.0000)

Unit cell:
           periodic     x           y           z      points  spacing
  1. axis:    yes    3.631418    0.000000    0.000000    16     0.2140
  2. axis:    yes   -1.210473    3.423733    0.000000    16     0.2140
  3. axis:    no     0.000000   -0.000000   56.685361   245     0.2314

  Lengths:   3.631418   3.631418  56.685361
  Angles:   90.000000  90.000000 109.471221

Effective grid spacing dv^(1/3) = 0.2240

     iter     time        total  log10-change:
                         energy   eigst   dens
iter:   1 19:44:34   -12.983263   -5.99
iter:   2 19:44:34   -12.983770   -6.45  -3.26
iter:   3 19:44:35   -12.983275c  -7.01  -3.00
iter:   4 19:44:35   -12.983059c  -7.67c -3.25
iter:   5 19:44:36   -12.983056c  -7.98c -4.06c

Converged after 5 iterations.

Dipole moment: (0.000000, -0.000000, -0.000005) |e|*Ang

Energy contributions relative to reference atoms: (reference = -44186.104977)

Kinetic:        +12.944061
Potential:      -11.375168
External:        +0.000000
XC:             -14.261848
Entropy (-ST):   -0.000233
Local:           -0.289985
SIC:             +0.000000
--------------------------
Free energy:    -12.983172
Extrapolated:   -12.983056

Showing only first 2 kpts
 Kpt  Band  Eigenvalues  Occupancy
  0    33     -3.72679    2.00000
  0    34     -3.39721    2.00000
  0    35     -3.01038    2.00000
  0    36     -2.52488    2.00000

  1    33     -3.60551    2.00000
  1    34     -3.27659    2.00000
  1    35     -2.89062    2.00000
  1    36     -2.40611    2.00000


Fermi level: -1.19486

No gap

Forces in eV/Ang:
  0 Na    0.00000    0.00000    0.04717
  1 Na    0.00000    0.00000   -0.04900
  2 Na    0.00000    0.00000    0.02541
  3 Na    0.00000    0.00000   -0.02918
  4 Na    0.00000    0.00000    0.02124
  5 Na    0.00000    0.00000   -0.02138
  6 Na    0.00000    0.00000    0.02910
  7 Na    0.00000    0.00000   -0.02541
  8 Na    0.00000    0.00000    0.04909
  9 Na    0.00000    0.00000   -0.04713

System changes: positions 

Initializing position-dependent things.

Density initialized from wave functions
                     
                     
                     
                     
            Na       
                     
                     
                     
       Na            
                     
                     
            Na       
                     
                     
                     
                     
       Na            
                     
            Na       
                     
                     
                     
                     
       Na            
                     
            Na       
                     
                     
                     
                     
       Na            
                     
                     
            Na       
                     
                     
                     
       Na            
                     
                     
                     
                     

Positions:
   0 Na     0.000000    0.000000   15.106776    ( 0.0000,  0.0000,  0.0000)
   1 Na     1.210473    1.711867   17.854289    ( 0.0000,  0.0000,  0.0000)
   2 Na    -0.000000    0.000000   20.987525    ( 0.0000,  0.0000,  0.0000)
   3 Na     1.210473    1.711867   23.829427    ( 0.0000,  0.0000,  0.0000)
   4 Na    -0.000000    0.000000   26.907790    ( 0.0000,  0.0000,  0.0000)
   5 Na     1.210473    1.711867   29.777217    ( 0.0000,  0.0000,  0.0000)
   6 Na     0.000000    0.000000   32.855745    ( 0.0000,  0.0000,  0.0000)
   7 Na     1.210473    1.711867   35.697840    ( 0.0000,  0.0000,  0.0000)
   8 Na    -0.000000    0.000000   38.831296    ( 0.0000,  0.0000,  0.0000)
   9 Na     1.210473    1.711867   41.578684    ( 0.0000,  0.0000,  0.0000)

Unit cell:
           periodic     x           y           z      points  spacing
  1. axis:    yes    3.631418    0.000000    0.000000    16     0.2140
  2. axis:    yes   -1.210473    3.423733    0.000000    16     0.2140
  3. axis:    no     0.000000   -0.000000   56.685361   245     0.2314

  Lengths:   3.631418   3.631418  56.685361
  Angles:   90.000000  90.000000 109.471221

Effective grid spacing dv^(1/3) = 0.2240

     iter     time        total  log10-change:
                         energy   eigst   dens
iter:   1 19:44:37   -22.302162   -1.49
iter:   2 19:44:37   -26.385779   -0.72  -0.99
iter:   3 19:44:38   -13.561388   -1.40  -0.89
iter:   4 19:44:38   -13.347261   -2.50  -1.53
iter:   5 19:44:39   -13.888215   -3.14  -1.64
iter:   6 19:44:39   -13.085872   -3.21  -1.42
iter:   7 19:44:40   -13.000589   -4.23  -1.87
iter:   8 19:44:40   -12.984966   -4.27  -2.09
iter:   9 19:44:41   -12.980369c  -4.28  -2.24
iter:  10 19:44:41   -12.973982c  -4.31  -2.38
iter:  11 19:44:42   -12.972970c  -4.40  -2.61
iter:  12 19:44:42   -12.971345c  -5.00  -2.71
iter:  13 19:44:43   -12.971081c  -5.22  -2.94
iter:  14 19:44:43   -12.971048c  -5.44  -3.11
iter:  15 19:44:44   -12.971061c  -5.65  -3.20
iter:  16 19:44:44   -12.971048c  -5.98  -3.27
iter:  17 19:44:45   -12.971045c  -6.27  -3.32
iter:  18 19:44:45   -12.971142c  -6.43  -3.35
iter:  19 19:44:46   -12.971025c  -6.39  -3.28
iter:  20 19:44:46   -12.971022c  -6.74  -3.61
iter:  21 19:44:47   -12.971010c  -6.77  -3.71
iter:  22 19:44:48   -12.971010c  -7.52c -3.96
iter:  23 19:44:48   -12.971010c  -7.91c -3.97
iter:  24 19:44:49   -12.971011c  -8.22c -4.03c

Converged after 24 iterations.

Dipole moment: (0.000000, -0.000000, 0.000304) |e|*Ang

Energy contributions relative to reference atoms: (reference = -44186.104977)

Kinetic:        +13.799907
Potential:      -12.002313
External:        +0.000000
XC:             -14.476550
Entropy (-ST):   -0.000162
Local:           -0.291973
SIC:             +0.000000
--------------------------
Free energy:    -12.971092
Extrapolated:   -12.971011

Showing only first 2 kpts
 Kpt  Band  Eigenvalues  Occupancy
  0    33     -3.76754    2.00000
  0    34     -3.45927    2.00000
  0    35     -2.96299    2.00000
  0    36     -2.48786    2.00000

  1    33     -3.64616    2.00000
  1    34     -3.33855    2.00000
  1    35     -2.84349    2.00000
  1    36     -2.36929    2.00000


Fermi level: -1.21871

No gap

Forces in eV/Ang:
  0 Na    0.00000    0.00000   -0.05539
  1 Na    0.00000    0.00000    0.09751
  2 Na    0.00000    0.00000   -0.07264
  3 Na    0.00000    0.00000    0.05167
  4 Na    0.00000    0.00000   -0.04731
  5 Na    0.00000    0.00000    0.04714
  6 Na    0.00000    0.00000   -0.05361
  7 Na    0.00000    0.00000    0.07294
  8 Na    0.00000    0.00000   -0.09813
  9 Na    0.00000    0.00000    0.05582

System changes: positions 

Initializing position-dependent things.

Density initialized from wave functions
                     
                     
                     
                     
            Na       
                     
                     
                     
                     
       Na            
                     
            Na       
                     
                     
                     
                     
       Na            
                     
                     
            Na       
                     
                     
                     
       Na            
                     
                     
            Na       
                     
                     
                     
                     
       Na            
                     
            Na       
                     
                     
                     
                     
       Na            
                     
                     
                     
                     

Positions:
   0 Na     0.000000    0.000000   15.038803    ( 0.0000,  0.0000,  0.0000)
   1 Na     1.210473    1.711867   17.924993    ( 0.0000,  0.0000,  0.0000)
   2 Na    -0.000000    0.000000   20.950739    ( 0.0000,  0.0000,  0.0000)
   3 Na     1.210473    1.711867   23.871327    ( 0.0000,  0.0000,  0.0000)
   4 Na    -0.000000    0.000000   26.877365    ( 0.0000,  0.0000,  0.0000)
   5 Na     1.210473    1.711867   29.807866    ( 0.0000,  0.0000,  0.0000)
   6 Na     0.000000    0.000000   32.813955    ( 0.0000,  0.0000,  0.0000)
   7 Na     1.210473    1.711867   35.734625    ( 0.0000,  0.0000,  0.0000)
   8 Na    -0.000000    0.000000   38.760447    ( 0.0000,  0.0000,  0.0000)
   9 Na     1.210473    1.711867   41.646596    ( 0.0000,  0.0000,  0.0000)

Unit cell:
           periodic     x           y           z      points  spacing
  1. axis:    yes    3.631418    0.000000    0.000000    16     0.2140
  2. axis:    yes   -1.210473    3.423733    0.000000    16     0.2140
  3. axis:    no     0.000000   -0.000000   56.685361   245     0.2314

  Lengths:   3.631418   3.631418  56.685361
  Angles:   90.000000  90.000000 109.471221

Effective grid spacing dv^(1/3) = 0.2240

     iter     time        total  log10-change:
                         energy   eigst   dens
iter:   1 19:44:50   -16.933974   -1.83
iter:   2 19:44:50   -24.449663   -1.00  -1.08
iter:   3 19:44:51   -13.511239   -2.24  -0.95
iter:   4 19:44:52   -13.486921   -3.48  -1.63
iter:   5 19:44:52   -13.081891   -4.05  -1.65
iter:   6 19:44:53   -13.107861   -4.66  -1.95
iter:   7 19:44:53   -13.002756   -3.51  -1.91
iter:   8 19:44:54   -12.991204   -3.89  -2.26
iter:   9 19:44:54   -12.989328c  -4.06  -2.60
iter:  10 19:44:55   -12.988610c  -4.71  -2.81
iter:  11 19:44:55   -12.988903c  -5.11  -2.93
iter:  12 19:44:56   -12.988244c  -5.44  -2.94
iter:  13 19:44:56   -12.988235c  -5.71  -3.23
iter:  14 19:44:57   -12.988230c  -5.94  -3.28
iter:  15 19:44:57   -12.988235c  -6.15  -3.35
iter:  16 19:44:58   -12.988218c  -6.39  -3.38
iter:  17 19:44:58   -12.988225c  -6.63  -3.49
iter:  18 19:44:59   -12.988230c  -6.88  -3.53
iter:  19 19:45:00   -12.988213c  -6.86  -3.57
iter:  20 19:45:00   -12.988205c  -7.19  -3.69
iter:  21 19:45:01   -12.988208c  -7.44c -3.80
iter:  22 19:45:01   -12.988203c  -7.53c -3.81
iter:  23 19:45:02   -12.988203c  -8.13c -3.98
iter:  24 19:45:02   -12.988206c  -8.29c -4.03c

Converged after 24 iterations.

Dipole moment: (-0.000000, -0.000000, 0.000319) |e|*Ang

Energy contributions relative to reference atoms: (reference = -44186.104977)

Kinetic:        +13.127497
Potential:      -11.508381
External:        +0.000000
XC:             -14.322518
Entropy (-ST):   -0.000161
Local:           -0.284724
SIC:             +0.000000
--------------------------
Free energy:    -12.988287
Extrapolated:   -12.988206

Showing only first 2 kpts
 Kpt  Band  Eigenvalues  Occupancy
  0    33     -3.74265    2.00000
  0    34     -3.42120    2.00000
  0    35     -2.99627    2.00000
  0    36     -2.51476    2.00000

  1    33     -3.62134    2.00000
  1    34     -3.30055    2.00000
  1    35     -2.87660    2.00000
  1    36     -2.39606    2.00000


Fermi level: -1.20606

No gap

Forces in eV/Ang:
  0 Na    0.00000    0.00000    0.01232
  1 Na    0.00000    0.00000    0.00564
  2 Na    0.00000    0.00000   -0.01375
  3 Na    0.00000    0.00000    0.00095
  4 Na    0.00000    0.00000   -0.00496
  5 Na    0.00000    0.00000    0.00498
  6 Na    0.00000    0.00000   -0.00191
  7 Na   -0.00000    0.00000    0.01353
  8 Na    0.00000    0.00000   -0.00577
  9 Na    0.00000    0.00000   -0.01122

System changes: positions 

Initializing position-dependent things.

Density initialized from wave functions
                     
                     
                     
                     
            Na       
                     
                     
                     
                     
       Na            
                     
            Na       
                     
                     
                     
                     
       Na            
                     
                     
            Na       
                     
                     
                     
       Na            
                     
                     
            Na       
                     
                     
                     
                     
       Na            
                     
            Na       
                     
                     
                     
                     
       Na            
                     
                     
                     
                     

Positions:
   0 Na     0.000000    0.000000   15.037739    ( 0.0000,  0.0000,  0.0000)
   1 Na     1.210473    1.711867   17.926363    ( 0.0000,  0.0000,  0.0000)
   2 Na    -0.000000    0.000000   20.949875    ( 0.0000,  0.0000,  0.0000)
   3 Na     1.210473    1.711867   23.872113    ( 0.0000,  0.0000,  0.0000)
   4 Na    -0.000000    0.000000   26.876730    ( 0.0000,  0.0000,  0.0000)
   5 Na     1.210473    1.711867   29.808505    ( 0.0000,  0.0000,  0.0000)
   6 Na     0.000000    0.000000   32.813157    ( 0.0000,  0.0000,  0.0000)
   7 Na     1.210473    1.711867   35.735486    ( 0.0000,  0.0000,  0.0000)
   8 Na    -0.000000    0.000000   38.759073    ( 0.0000,  0.0000,  0.0000)
   9 Na     1.210473    1.711867   41.647676    ( 0.0000,  0.0000,  0.0000)

Unit cell:
           periodic     x           y           z      points  spacing
  1. axis:    yes    3.631418    0.000000    0.000000    16     0.2140
  2. axis:    yes   -1.210473    3.423733    0.000000    16     0.2140
  3. axis:    no     0.000000   -0.000000   56.685361   245     0.2314

  Lengths:   3.631418   3.631418  56.685361
  Angles:   90.000000  90.000000 109.471221

Effective grid spacing dv^(1/3) = 0.2240

     iter     time        total  log10-change:
                         energy   eigst   dens
iter:   1 19:45:03   -13.011892   -5.19
iter:   2 19:45:04   -13.439270   -4.36  -2.24
iter:   3 19:45:04   -12.988701   -4.83  -1.60
iter:   4 19:45:05   -12.988359   -5.69  -3.06
iter:   5 19:45:05   -12.988257c  -6.31  -3.35
iter:   6 19:45:06   -12.988244c  -6.80  -3.52
iter:   7 19:45:06   -12.988222c  -6.96  -3.58
iter:   8 19:45:07   -12.988206c  -6.88  -3.76
iter:   9 19:45:07   -12.988206c  -7.44c -4.22c

Converged after 9 iterations.

Dipole moment: (-0.000000, -0.000000, -0.000275) |e|*Ang

Energy contributions relative to reference atoms: (reference = -44186.104977)

Kinetic:        +13.160954
Potential:      -11.536648
External:        +0.000000
XC:             -14.324041
Entropy (-ST):   -0.000166
Local:           -0.288388
SIC:             +0.000000
--------------------------
Free energy:    -12.988289
Extrapolated:   -12.988206

Showing only first 2 kpts
 Kpt  Band  Eigenvalues  Occupancy
  0    33     -3.74084    2.00000
  0    34     -3.41940    2.00000
  0    35     -2.99576    2.00000
  0    36     -2.51423    2.00000

  1    33     -3.61954    2.00000
  1    34     -3.29876    2.00000
  1    35     -2.87609    2.00000
  1    36     -2.39553    2.00000


Fermi level: -1.20462

No gap

Forces in eV/Ang:
  0 Na    0.00000    0.00000    0.01326
  1 Na    0.00000    0.00000    0.00068
  2 Na    0.00000    0.00000   -0.01002
  3 Na    0.00000    0.00000    0.00024
  4 Na    0.00000    0.00000   -0.00589
  5 Na    0.00000    0.00000    0.00580
  6 Na    0.00000    0.00000   -0.00040
  7 Na    0.00000    0.00000    0.01110
  8 Na    0.00000    0.00000   -0.00195
  9 Na    0.00000    0.00000   -0.01257

System changes: positions 

Initializing position-dependent things.

Density initialized from wave functions
                     
                     
                     
                     
            Na       
                     
                     
                     
                     
       Na            
                     
            Na       
                     
                     
                     
                     
       Na            
                     
                     
            Na       
                     
                     
                     
       Na            
                     
                     
            Na       
                     
                     
                     
                     
       Na            
                     
            Na       
                     
                     
                     
                     
       Na            
                     
                     
                     
                     

Positions:
   0 Na     0.000000   -0.000000   15.038064    ( 0.0000,  0.0000,  0.0000)
   1 Na     1.210473    1.711867   17.926465    ( 0.0000,  0.0000,  0.0000)
   2 Na    -0.000000    0.000000   20.949551    ( 0.0000,  0.0000,  0.0000)
   3 Na     1.210473    1.711867   23.872160    ( 0.0000,  0.0000,  0.0000)
   4 Na    -0.000000    0.000000   26.876550    ( 0.0000,  0.0000,  0.0000)
   5 Na     1.210473    1.711867   29.808682    ( 0.0000,  0.0000,  0.0000)
   6 Na     0.000000    0.000000   32.813098    ( 0.0000,  0.0000,  0.0000)
   7 Na     1.210473    1.711867   35.735824    ( 0.0000,  0.0000,  0.0000)
   8 Na    -0.000000    0.000000   38.758951    ( 0.0000,  0.0000,  0.0000)
   9 Na     1.210473    1.711867   41.647374    ( 0.0000,  0.0000,  0.0000)

Unit cell:
           periodic     x           y           z      points  spacing
  1. axis:    yes    3.631418    0.000000    0.000000    16     0.2140
  2. axis:    yes   -1.210473    3.423733    0.000000    16     0.2140
  3. axis:    no     0.000000   -0.000000   56.685361   245     0.2314

  Lengths:   3.631418   3.631418  56.685361
  Angles:   90.000000  90.000000 109.471221

Effective grid spacing dv^(1/3) = 0.2240

     iter     time        total  log10-change:
                         energy   eigst   dens
iter:   1 19:45:08   -12.995112   -6.04
iter:   2 19:45:09   -13.120218   -4.92  -2.50
iter:   3 19:45:09   -12.988474   -5.36  -1.86
iter:   4 19:45:10   -12.988302   -6.21  -3.25
iter:   5 19:45:10   -12.988245c  -6.86  -3.52
iter:   6 19:45:11   -12.988229c  -7.26  -3.78
iter:   7 19:45:11   -12.988223c  -7.52c -4.06c

Converged after 7 iterations.

Dipole moment: (0.000000, -0.000000, 0.000002) |e|*Ang

Energy contributions relative to reference atoms: (reference = -44186.104977)

Kinetic:        +13.160178
Potential:      -11.535190
External:        +0.000000
XC:             -14.323670
Entropy (-ST):   -0.000163
Local:           -0.289459
SIC:             +0.000000
--------------------------
Free energy:    -12.988304
Extrapolated:   -12.988223

Showing only first 2 kpts
 Kpt  Band  Eigenvalues  Occupancy
  0    33     -3.74067    2.00000
  0    34     -3.41887    2.00000
  0    35     -2.99553    2.00000
  0    36     -2.51375    2.00000

  1    33     -3.61937    2.00000
  1    34     -3.29822    2.00000
  1    35     -2.87586    2.00000
  1    36     -2.39505    2.00000


Fermi level: -1.20419

No gap

Forces in eV/Ang:
  0 Na    0.00000    0.00000    0.01276
  1 Na    0.00000   -0.00000    0.00264
  2 Na    0.00000    0.00000   -0.01140
  3 Na    0.00000    0.00000    0.00028
  4 Na    0.00000    0.00000   -0.00356
  5 Na    0.00000    0.00000    0.00356
  6 Na    0.00000    0.00000    0.00110
  7 Na    0.00000    0.00000    0.01008
  8 Na    0.00000    0.00000   -0.00152
  9 Na    0.00000   -0.00000   -0.01316

System changes: positions 

Initializing position-dependent things.

Density initialized from wave functions
                     
                     
                     
                     
            Na       
                     
                     
                     
                     
       Na            
                     
            Na       
                     
                     
                     
                     
       Na            
                     
                     
            Na       
                     
                     
                     
       Na            
                     
                     
            Na       
                     
                     
                     
                     
       Na            
                     
            Na       
                     
                     
                     
                     
       Na            
                     
                     
                     
                     

Positions:
   0 Na     0.000000   -0.000000   15.056152    ( 0.0000,  0.0000,  0.0000)
   1 Na     1.210473    1.711867   17.928477    ( 0.0000,  0.0000,  0.0000)
   2 Na    -0.000000    0.000000   20.935902    ( 0.0000,  0.0000,  0.0000)
   3 Na     1.210473    1.711867   23.872206    ( 0.0000,  0.0000,  0.0000)
   4 Na    -0.000000    0.000000   26.870734    ( 0.0000,  0.0000,  0.0000)
   5 Na     1.210473    1.711867   29.814404    ( 0.0000,  0.0000,  0.0000)
   6 Na     0.000000    0.000000   32.813023    ( 0.0000,  0.0000,  0.0000)
   7 Na     1.210473    1.711867   35.749202    ( 0.0000,  0.0000,  0.0000)
   8 Na    -0.000000    0.000000   38.756958    ( 0.0000,  0.0000,  0.0000)
   9 Na     1.210473    1.711867   41.629941    ( 0.0000,  0.0000,  0.0000)

Unit cell:
           periodic     x           y           z      points  spacing
  1. axis:    yes    3.631418    0.000000    0.000000    16     0.2140
  2. axis:    yes   -1.210473    3.423733    0.000000    16     0.2140
  3. axis:    no     0.000000   -0.000000   56.685361   245     0.2314

  Lengths:   3.631418   3.631418  56.685361
  Angles:   90.000000  90.000000 109.471221

Effective grid spacing dv^(1/3) = 0.2240

     iter     time        total  log10-change:
                         energy   eigst   dens
iter:   1 19:45:12   -13.254727   -3.28
iter:   2 19:45:13   -13.480283   -3.51  -1.73
iter:   3 19:45:14   -13.020352   -4.17  -1.60
iter:   4 19:45:14   -13.061024   -4.75  -2.21
iter:   5 19:45:15   -12.991431   -4.97  -2.01
iter:   6 19:45:15   -12.990438   -5.72  -2.67
iter:   7 19:45:16   -12.988739c  -5.13  -2.75
iter:   8 19:45:16   -12.988709c  -6.02  -3.35
iter:   9 19:45:17   -12.988704c  -6.39  -3.42
iter:  10 19:45:17   -12.988884c  -6.38  -3.46
iter:  11 19:45:18   -12.988716c  -6.95  -3.23
iter:  12 19:45:18   -12.988669c  -6.96  -3.49
iter:  13 19:45:19   -12.988667c  -7.28  -3.78
iter:  14 19:45:19   -12.988665c  -7.40c -3.88
iter:  15 19:45:20   -12.988666c  -7.53c -4.08c

Converged after 15 iterations.

Dipole moment: (-0.000000, -0.000000, -0.000165) |e|*Ang

Energy contributions relative to reference atoms: (reference = -44186.104977)

Kinetic:        +13.273574
Potential:      -11.620841
External:        +0.000000
XC:             -14.350003
Entropy (-ST):   -0.000187
Local:           -0.291302
SIC:             +0.000000
--------------------------
Free energy:    -12.988759
Extrapolated:   -12.988666

Showing only first 2 kpts
 Kpt  Band  Eigenvalues  Occupancy
  0    33     -3.74242    2.00000
  0    34     -3.41543    2.00000
  0    35     -2.99760    2.00000
  0    36     -2.51132    2.00000

  1    33     -3.62112    2.00000
  1    34     -3.29479    2.00000
  1    35     -2.87792    2.00000
  1    36     -2.39264    2.00000


Fermi level: -1.20737

No gap
