
  ___ ___ ___ _ _ _  
 |   |   |_  | | | | 
 | | | | | . | | | | 
 |__ |  _|___|_____|  24.1.0
 |___|_|             

User:   husi@vera-r04-07
Date:   Wed Feb 26 18:43:09 2025
Arch:   x86_64
Pid:    1475527
CWD:    /cephyr/users/husi/Vera/A3
Python: 3.11.3
gpaw:   /apps/Arch/software/GPAW/24.1.0-foss-2023a/lib/python3.11/site-packages/gpaw
_gpaw:  /apps/Arch/software/GPAW/24.1.0-foss-2023a/lib/python3.11/site-packages/
        _gpaw.cpython-311-x86_64-linux-gnu.so
ase:    /apps/Arch/software/ASE/3.22.1-gfbf-2023a/lib/python3.11/site-packages/ase (version 3.22.1)
numpy:  /apps/Arch/software/SciPy-bundle/2023.07-gfbf-2023a/lib/python3.11/site-packages/numpy (version 1.25.1)
scipy:  /apps/Arch/software/SciPy-bundle/2023.07-gfbf-2023a/lib/python3.11/site-packages/scipy (version 1.11.1)
libxc:  6.2.2
units:  Angstrom and eV
cores: 32
OpenMP: False
OMP_NUM_THREADS: 1

Input parameters:
  kpts: [8 8 1]
  mode: {ecut: 500.0,
         name: pw}
  occupations: {fixmagmom: False,
                name: fermi-dirac,
                width: 0.01}
  xc: PBE

System changes: positions, numbers, cell, pbc, initial_charges, initial_magmoms 

Initialize ...

species:
  Na:
    name: Sodium
    id: d7ecbc49209718622bcbe287195dca2a
    Z: 11.0
    valence: 7
    core: 4
    charge: 0.0
    file: /apps/Common/software/GPAW-setups/24.1.0/Na.PBE.gz
    compensation charges: {type: gauss,
                           rc: 0.37,
                           lmax: 2}
    cutoffs: {filter: 2.17,
              core: 2.59}
    valence states:
      #              energy  rcut
      - 3s(1.00)    -2.744   1.201
      - 2p(6.00)   -28.672   1.217
      - 3p(0.00)    -0.743   1.217
      -  s          24.468   1.201
      -  d           0.000   1.238
  
    # Using partial waves for Na as LCAO basis

Reference energy: -61860.546967  # eV

Spin-paired calculation

Convergence criteria:
 Maximum [total energy] change in last 3 cyles: 0.0005 eV / valence electron
 Maximum integral of absolute [dens]ity change: 0.0001 electrons / valence electron
 Maximum integral of absolute [eigenst]ate change: 4e-08 eV^2 / valence electron
 Maximum number of scf [iter]ations: 333
 (Square brackets indicate name in SCF output, whereas a 'c' in
 the SCF output indicates the quantity has converged.)

Symmetries present (total): 4

  ( 1  0  0)  ( 0  1  0)  ( 0 -1  0)  (-1  0  0)
  ( 0  1  0)  ( 1  0  0)  (-1  0  0)  ( 0 -1  0)
  ( 0  0  1)  ( 0  0  1)  ( 0  0  1)  ( 0  0  1)

64 k-points: 8 x 8 x 1 Monkhorst-Pack grid
20 k-points in the irreducible part of the Brillouin zone
       k-points in crystal coordinates                weights
   0:     0.06250000   -0.06250000    0.00000000          2/64
   1:     0.06250000    0.06250000    0.00000000          2/64
   2:     0.18750000   -0.18750000    0.00000000          2/64
   3:     0.18750000   -0.06250000    0.00000000          4/64
   4:     0.18750000    0.06250000    0.00000000          4/64
   5:     0.18750000    0.18750000    0.00000000          2/64
   6:     0.31250000   -0.31250000    0.00000000          2/64
   7:     0.31250000   -0.18750000    0.00000000          4/64
   8:     0.31250000   -0.06250000    0.00000000          4/64
   9:     0.31250000    0.06250000    0.00000000          4/64
          ...
  19:     0.43750000    0.43750000    0.00000000          2/64

Wave functions: Plane wave expansion
  Cutoff energy: 500.000 eV
  Number of coefficients (min, max): 21512, 21781
  Pulay-stress correction: 0.000000 eV/Ang^3 (de/decut=0.000000)
  Using FFTW library
  ScaLapack parameters: grid=1x1, blocksize=None
  Wavefunction extrapolation:
    Improved wavefunction reuse through dual PAW basis 

Occupation numbers: Fermi-Dirac:
  width: 0.0100  # eV
 

Eigensolver
   Davidson(niter=2) 

Densities:
  Coarse grid: 20*20*360 grid
  Fine grid: 40*40*720 grid
  Total Charge: 0.000000 

Density mixing:
  Method: separate
  Backend: pulay
  Linear mixing parameter: 0.05
  old densities: 5
  Damping of long wavelength oscillations: 50 

Hamiltonian:
  XC and Coulomb potentials evaluated on a 40*40*720 grid
  Using the PBE Exchange-Correlation functional
  External potential:
    NoExternalPotential
 

XC parameters: PBE with 2 nearest neighbor stencil

Memory estimate:
  Process memory now: 1005.77 MiB
  Calculator: 116.02 MiB
    Density: 62.44 MiB
      Arrays: 28.56 MiB
      Localized functions: 22.89 MiB
      Mixer: 10.99 MiB
    Hamiltonian: 19.14 MiB
      Arrays: 18.68 MiB
      XC: 0.00 MiB
      Poisson: 0.00 MiB
      vbar: 0.47 MiB
    Wavefunctions: 34.44 MiB
      Arrays psit_nG: 13.29 MiB
      Eigensolver: 2.27 MiB
      Projections: 0.11 MiB
      Projectors: 11.61 MiB
      PW-descriptor: 7.15 MiB

Total number of cores used: 32
Parallelization over k-points: 4
Parallelization over states: 8

Number of atoms: 14
Number of atomic orbitals: 98
Number of bands in calculation: 63
Number of valence electrons: 98
Bands to converge: occupied

... initialized

Initializing position-dependent things.

Density initialized from atomic densities
Creating initial wave functions:
  63 bands from LCAO basis set

                     
                     
                     
                     
            Na       
                     
                     
                     
                     
       Na            
                     
            Na       
                     
                     
                     
                     
       Na            
                     
            Na       
                     
                     
                     
                     
       Na            
                     
                     
            Na       
                     
                     
                     
       Na            
                     
                     
            Na       
                     
                     
                     
                     
       Na            
                     
            Na       
                     
                     
                     
                     
       Na            
                     
            Na       
                     
                     
                     
                     
       Na            
                     
                     
                     
                     

Positions:
   0 Na     0.000000    0.000000   15.000000    ( 0.0000,  0.0000,  0.0000)
   1 Na     1.210473    1.711867   17.965040    ( 0.0000,  0.0000,  0.0000)
   2 Na    -0.000000    0.000000   20.930080    ( 0.0000,  0.0000,  0.0000)
   3 Na     1.210473    1.711867   23.895120    ( 0.0000,  0.0000,  0.0000)
   4 Na    -0.000000    0.000000   26.860161    ( 0.0000,  0.0000,  0.0000)
   5 Na     1.210473    1.711867   29.825201    ( 0.0000,  0.0000,  0.0000)
   6 Na     0.000000    0.000000   32.790241    ( 0.0000,  0.0000,  0.0000)
   7 Na     1.210473    1.711867   35.755281    ( 0.0000,  0.0000,  0.0000)
   8 Na    -0.000000    0.000000   38.720321    ( 0.0000,  0.0000,  0.0000)
   9 Na     1.210473    1.711867   41.685361    ( 0.0000,  0.0000,  0.0000)
  10 Na     0.000000    0.000000   44.650402    ( 0.0000,  0.0000,  0.0000)
  11 Na     1.210473    1.711867   47.615442    ( 0.0000,  0.0000,  0.0000)
  12 Na     0.000000    0.000000   50.580482    ( 0.0000,  0.0000,  0.0000)
  13 Na     1.210473    1.711867   53.545522    ( 0.0000,  0.0000,  0.0000)

Unit cell:
           periodic     x           y           z      points  spacing
  1. axis:    yes    3.631418    0.000000    0.000000    20     0.1712
  2. axis:    yes   -1.210473    3.423733    0.000000    20     0.1712
  3. axis:    no     0.000000   -0.000000   68.545522   360     0.1904

  Lengths:   3.631418   3.631418  68.545522
  Angles:   90.000000  90.000000 109.471221

Effective grid spacing dv^(1/3) = 0.1809

     iter     time        total  log10-change:
                         energy   eigst   dens
iter:   1 18:43:16   -18.340354
iter:   2 18:43:18   -18.468000   -1.43  -1.63
iter:   3 18:43:20   -18.438532   -2.20  -1.65
iter:   4 18:43:22   -18.292283   -2.73  -1.64
iter:   5 18:43:24   -18.284615   -2.79  -1.78
iter:   6 18:43:26   -18.276560c  -3.10  -1.97
iter:   7 18:43:28   -18.275608c  -3.57  -2.20
iter:   8 18:43:30   -18.279426c  -4.12  -2.34
iter:   9 18:43:32   -18.269656c  -4.42  -2.36
iter:  10 18:43:34   -18.260607c  -4.71  -2.48
iter:  11 18:43:37   -18.258864c  -5.13  -2.78
iter:  12 18:43:39   -18.290734c  -4.93  -2.89
iter:  13 18:43:41   -18.255597c  -5.22  -2.21
iter:  14 18:43:43   -18.255312c  -5.80  -3.22
iter:  15 18:43:45   -18.255104c  -5.69  -3.29
iter:  16 18:43:47   -18.255091c  -6.45  -3.22
iter:  17 18:43:49   -18.254627c  -5.84  -3.22
iter:  18 18:43:51   -18.254746c  -6.43  -3.55
iter:  19 18:43:53   -18.254541c  -6.72  -3.31
iter:  20 18:43:55   -18.254499c  -6.76  -3.66
iter:  21 18:43:57   -18.254492c  -7.06  -3.80
iter:  22 18:43:59   -18.254497c  -7.03  -3.81
iter:  23 18:44:01   -18.254479c  -7.67c -3.72
iter:  24 18:44:03   -18.254495c  -7.29  -3.94
iter:  25 18:44:05   -18.254475c  -7.79c -3.73
iter:  26 18:44:07   -18.254475c  -7.63c -4.08c

Converged after 26 iterations.

Dipole moment: (-0.000000, -0.000000, -0.000114) |e|*Ang

Energy contributions relative to reference atoms: (reference = -61860.546967)

Kinetic:        +19.788316
Potential:      -17.243901
External:        +0.000000
XC:             -20.346421
Entropy (-ST):   -0.000871
Local:           -0.452033
SIC:             +0.000000
--------------------------
Free energy:    -18.254910
Extrapolated:   -18.254475

Showing only first 2 kpts
 Kpt  Band  Eigenvalues  Occupancy
  0    47     -3.42307    2.00000
  0    48     -3.16578    2.00000
  0    49     -2.87985    2.00000
  0    50     -2.54123    2.00000

  1    47     -3.35492    2.00000
  1    48     -3.09794    2.00000
  1    49     -2.81236    2.00000
  1    50     -2.47415    2.00000


Fermi level: -0.88170

No gap

Forces in eV/Ang:
  0 Na    0.00000    0.00000    0.02775
  1 Na    0.00000    0.00000   -0.03787
  2 Na    0.00000    0.00000    0.00313
  3 Na    0.00000    0.00000   -0.00553
  4 Na    0.00000    0.00000    0.01264
  5 Na    0.00000    0.00000   -0.01556
  6 Na    0.00000    0.00000    0.01527
  7 Na    0.00000    0.00000   -0.01574
  8 Na    0.00000    0.00000    0.01537
  9 Na    0.00000    0.00000   -0.01266
 10 Na    0.00000    0.00000    0.00586
 11 Na    0.00000    0.00000   -0.00288
 12 Na    0.00000    0.00000    0.03819
 13 Na    0.00000    0.00000   -0.02759

System changes: positions 

Initializing position-dependent things.

Density initialized from wave functions
                     
                     
                     
                     
            Na       
                     
                     
                     
                     
       Na            
                     
            Na       
                     
                     
                     
                     
       Na            
                     
            Na       
                     
                     
                     
                     
       Na            
                     
                     
            Na       
                     
                     
                     
       Na            
                     
                     
            Na       
                     
                     
                     
                     
       Na            
                     
            Na       
                     
                     
                     
                     
       Na            
                     
            Na       
                     
                     
                     
                     
       Na            
                     
                     
                     
                     

Positions:
   0 Na     0.000000    0.000000   15.000396    ( 0.0000,  0.0000,  0.0000)
   1 Na     1.210473    1.711867   17.964499    ( 0.0000,  0.0000,  0.0000)
   2 Na    -0.000000    0.000000   20.930125    ( 0.0000,  0.0000,  0.0000)
   3 Na     1.210473    1.711867   23.895041    ( 0.0000,  0.0000,  0.0000)
   4 Na    -0.000000    0.000000   26.860341    ( 0.0000,  0.0000,  0.0000)
   5 Na     1.210473    1.711867   29.824978    ( 0.0000,  0.0000,  0.0000)
   6 Na     0.000000    0.000000   32.790459    ( 0.0000,  0.0000,  0.0000)
   7 Na     1.210473    1.711867   35.755056    ( 0.0000,  0.0000,  0.0000)
   8 Na    -0.000000    0.000000   38.720541    ( 0.0000,  0.0000,  0.0000)
   9 Na     1.210473    1.711867   41.685181    ( 0.0000,  0.0000,  0.0000)
  10 Na     0.000000    0.000000   44.650485    ( 0.0000,  0.0000,  0.0000)
  11 Na     1.210473    1.711867   47.615401    ( 0.0000,  0.0000,  0.0000)
  12 Na     0.000000    0.000000   50.581027    ( 0.0000,  0.0000,  0.0000)
  13 Na     1.210473    1.711867   53.545128    ( 0.0000,  0.0000,  0.0000)

Unit cell:
           periodic     x           y           z      points  spacing
  1. axis:    yes    3.631418    0.000000    0.000000    20     0.1712
  2. axis:    yes   -1.210473    3.423733    0.000000    20     0.1712
  3. axis:    no     0.000000   -0.000000   68.545522   360     0.1904

  Lengths:   3.631418   3.631418  68.545522
  Angles:   90.000000  90.000000 109.471221

Effective grid spacing dv^(1/3) = 0.1809

     iter     time        total  log10-change:
                         energy   eigst   dens
iter:   1 18:44:11   -18.254810   -5.84
iter:   2 18:44:13   -18.255559   -6.42  -3.28
iter:   3 18:44:15   -18.256522c  -6.73  -2.98
iter:   4 18:44:17   -18.254827c  -7.22  -2.83
iter:   5 18:44:19   -18.254568c  -7.77c -3.30
iter:   6 18:44:21   -18.254558c  -8.41c -3.99
iter:   7 18:44:23   -18.254557c  -8.40c -4.22c

Converged after 7 iterations.

Dipole moment: (-0.000000, -0.000000, -0.000077) |e|*Ang

Energy contributions relative to reference atoms: (reference = -61860.546967)

Kinetic:        +19.144333
Potential:      -16.671501
External:        +0.000000
XC:             -20.280395
Entropy (-ST):   -0.000870
Local:           -0.446559
SIC:             +0.000000
--------------------------
Free energy:    -18.254991
Extrapolated:   -18.254557

Showing only first 2 kpts
 Kpt  Band  Eigenvalues  Occupancy
  0    47     -3.42211    2.00000
  0    48     -3.16453    2.00000
  0    49     -2.87863    2.00000
  0    50     -2.54008    2.00000

  1    47     -3.35396    2.00000
  1    48     -3.09668    2.00000
  1    49     -2.81115    2.00000
  1    50     -2.47301    2.00000


Fermi level: -0.88054

No gap

Forces in eV/Ang:
  0 Na   -0.00000    0.00000    0.02838
  1 Na    0.00000    0.00000   -0.03913
  2 Na    0.00000    0.00000    0.00324
  3 Na    0.00000    0.00000   -0.00603
  4 Na    0.00000    0.00000    0.01480
  5 Na    0.00000    0.00000   -0.01727
  6 Na    0.00000    0.00000    0.01669
  7 Na    0.00000    0.00000   -0.01662
  8 Na    0.00000    0.00000    0.01733
  9 Na   -0.00000    0.00000   -0.01468
 10 Na    0.00000    0.00000    0.00627
 11 Na    0.00000    0.00000   -0.00331
 12 Na    0.00000    0.00000    0.03914
 13 Na   -0.00000    0.00000   -0.02841

System changes: positions 

Initializing position-dependent things.

Density initialized from wave functions
                     
                     
                     
                     
            Na       
                     
                     
                     
                     
       Na            
                     
            Na       
                     
                     
                     
                     
       Na            
                     
            Na       
                     
                     
                     
                     
       Na            
                     
                     
            Na       
                     
                     
                     
       Na            
                     
                     
            Na       
                     
                     
                     
                     
       Na            
                     
            Na       
                     
                     
                     
                     
       Na            
                     
            Na       
                     
                     
                     
                     
       Na            
                     
                     
                     
                     

Positions:
   0 Na    -0.000000    0.000000   15.008635    ( 0.0000,  0.0000,  0.0000)
   1 Na     1.210473    1.711867   17.953136    ( 0.0000,  0.0000,  0.0000)
   2 Na    -0.000000    0.000000   20.931067    ( 0.0000,  0.0000,  0.0000)
   3 Na     1.210473    1.711867   23.893287    ( 0.0000,  0.0000,  0.0000)
   4 Na    -0.000000    0.000000   26.864654    ( 0.0000,  0.0000,  0.0000)
   5 Na     1.210473    1.711867   29.819952    ( 0.0000,  0.0000,  0.0000)
   6 Na     0.000000    0.000000   32.795314    ( 0.0000,  0.0000,  0.0000)
   7 Na     1.210473    1.711867   35.750225    ( 0.0000,  0.0000,  0.0000)
   8 Na    -0.000000    0.000000   38.725587    ( 0.0000,  0.0000,  0.0000)
   9 Na     1.210473    1.711867   41.680904    ( 0.0000,  0.0000,  0.0000)
  10 Na     0.000000   -0.000000   44.652309    ( 0.0000,  0.0000,  0.0000)
  11 Na     1.210473    1.711867   47.614435    ( 0.0000,  0.0000,  0.0000)
  12 Na     0.000000    0.000000   50.592392    ( 0.0000,  0.0000,  0.0000)
  13 Na     1.210473    1.711867   53.536879    ( 0.0000,  0.0000,  0.0000)

Unit cell:
           periodic     x           y           z      points  spacing
  1. axis:    yes    3.631418    0.000000    0.000000    20     0.1712
  2. axis:    yes   -1.210473    3.423733    0.000000    20     0.1712
  3. axis:    no     0.000000   -0.000000   68.545522   360     0.1904

  Lengths:   3.631418   3.631418  68.545522
  Angles:   90.000000  90.000000 109.471221

Effective grid spacing dv^(1/3) = 0.1809

     iter     time        total  log10-change:
                         energy   eigst   dens
iter:   1 18:44:27   -18.469287   -3.57
iter:   2 18:44:29   -21.141370   -3.06  -1.85
iter:   3 18:44:31   -18.707570   -3.68  -1.24
iter:   4 18:44:33   -18.287483   -4.52  -1.63
iter:   5 18:44:35   -18.258694   -5.41  -2.25
iter:   6 18:44:37   -18.256535c  -6.01  -2.79
iter:   7 18:44:39   -18.256248c  -6.33  -3.12
iter:   8 18:44:41   -18.256307c  -6.35  -3.24
iter:   9 18:44:43   -18.256910c  -6.42  -3.25
iter:  10 18:44:45   -18.256167c  -6.98  -2.98
iter:  11 18:44:47   -18.256025c  -6.78  -3.36
iter:  12 18:44:50   -18.256007c  -7.16  -3.67
iter:  13 18:44:52   -18.256006c  -7.42c -3.80
iter:  14 18:44:54   -18.256002c  -7.35  -3.86
iter:  15 18:44:56   -18.256019c  -7.68c -3.91
iter:  16 18:44:58   -18.256004c  -7.87c -3.75
iter:  17 18:45:00   -18.255995c  -8.22c -3.94
iter:  18 18:45:02   -18.255997c  -8.06c -4.14c

Converged after 18 iterations.

Dipole moment: (-0.000000, -0.000000, 0.000683) |e|*Ang

Energy contributions relative to reference atoms: (reference = -61860.546967)

Kinetic:        +19.335796
Potential:      -16.833188
External:        +0.000000
XC:             -20.309665
Entropy (-ST):   -0.000879
Local:           -0.448500
SIC:             +0.000000
--------------------------
Free energy:    -18.256437
Extrapolated:   -18.255997

Showing only first 2 kpts
 Kpt  Band  Eigenvalues  Occupancy
  0    47     -3.42475    2.00000
  0    48     -3.16984    2.00000
  0    49     -2.87636    2.00000
  0    50     -2.53926    2.00000

  1    47     -3.35660    2.00000
  1    48     -3.10199    2.00000
  1    49     -2.80889    2.00000
  1    50     -2.47219    2.00000


Fermi level: -0.88016

No gap

Forces in eV/Ang:
  0 Na    0.00000    0.00000    0.01794
  1 Na    0.00000    0.00000   -0.02489
  2 Na    0.00000    0.00000   -0.00237
  3 Na    0.00000    0.00000   -0.00277
  4 Na    0.00000   -0.00000    0.00754
  5 Na    0.00000    0.00000   -0.00819
  6 Na    0.00000    0.00000    0.00792
  7 Na    0.00000    0.00000   -0.00755
  8 Na    0.00000    0.00000    0.00800
  9 Na    0.00000    0.00000   -0.00759
 10 Na    0.00000   -0.00000    0.00157
 11 Na   -0.00000    0.00000    0.00264
 12 Na    0.00000   -0.00000    0.02405
 13 Na    0.00000    0.00000   -0.01773

System changes: positions 

Initializing position-dependent things.

Density initialized from wave functions
                     
                     
                     
                     
            Na       
                     
                     
                     
                     
       Na            
                     
            Na       
                     
                     
                     
                     
       Na            
                     
            Na       
                     
                     
                     
                     
       Na            
                     
                     
            Na       
                     
                     
                     
       Na            
                     
                     
            Na       
                     
                     
                     
                     
       Na            
                     
            Na       
                     
                     
                     
                     
       Na            
                     
            Na       
                     
                     
                     
                     
       Na            
                     
                     
                     
                     

Positions:
   0 Na    -0.000000   -0.000000   15.020157    ( 0.0000,  0.0000,  0.0000)
   1 Na     1.210473    1.711867   17.937239    ( 0.0000,  0.0000,  0.0000)
   2 Na    -0.000000    0.000000   20.932235    ( 0.0000,  0.0000,  0.0000)
   3 Na     1.210473    1.711867   23.890870    ( 0.0000,  0.0000,  0.0000)
   4 Na    -0.000000    0.000000   26.870620    ( 0.0000,  0.0000,  0.0000)
   5 Na     1.210473    1.711867   29.813019    ( 0.0000,  0.0000,  0.0000)
   6 Na     0.000000    0.000000   32.802013    ( 0.0000,  0.0000,  0.0000)
   7 Na     1.210473    1.711867   35.743570    ( 0.0000,  0.0000,  0.0000)
   8 Na    -0.000000    0.000000   38.732540    ( 0.0000,  0.0000,  0.0000)
   9 Na     1.210473    1.711867   41.674984    ( 0.0000,  0.0000,  0.0000)
  10 Na     0.000000   -0.000000   44.654778    ( 0.0000,  0.0000,  0.0000)
  11 Na     1.210473    1.711867   47.613248    ( 0.0000,  0.0000,  0.0000)
  12 Na     0.000000    0.000000   50.608263    ( 0.0000,  0.0000,  0.0000)
  13 Na     1.210473    1.711867   53.525350    ( 0.0000,  0.0000,  0.0000)

Unit cell:
           periodic     x           y           z      points  spacing
  1. axis:    yes    3.631418    0.000000    0.000000    20     0.1712
  2. axis:    yes   -1.210473    3.423733    0.000000    20     0.1712
  3. axis:    no     0.000000   -0.000000   68.545522   360     0.1904

  Lengths:   3.631418   3.631418  68.545522
  Angles:   90.000000  90.000000 109.471221

Effective grid spacing dv^(1/3) = 0.1809

     iter     time        total  log10-change:
                         energy   eigst   dens
iter:   1 18:45:06   -18.819124   -3.24
iter:   2 18:45:08   -28.820107   -1.56  -1.62
iter:   3 18:45:10   -20.519565   -2.29  -0.99
iter:   4 18:45:12   -18.297058   -3.68  -1.29
iter:   5 18:45:14   -18.272850   -4.52  -2.24
iter:   6 18:45:16   -18.257883c  -5.25  -2.39
iter:   7 18:45:18   -18.257469c  -5.86  -2.97
iter:   8 18:45:20   -18.257590c  -6.11  -3.07
iter:   9 18:45:22   -18.257982c  -5.84  -3.08
iter:  10 18:45:24   -18.260783c  -6.42  -2.97
iter:  11 18:45:26   -18.257051c  -6.15  -2.70
iter:  12 18:45:28   -18.257000c  -6.73  -3.53
iter:  13 18:45:30   -18.257040c  -6.87  -3.68
iter:  14 18:45:32   -18.256994c  -7.09  -3.57
iter:  15 18:45:34   -18.257006c  -7.42c -3.87
iter:  16 18:45:36   -18.257010c  -7.61c -3.76
iter:  17 18:45:38   -18.256993c  -7.91c -3.77
iter:  18 18:45:40   -18.256993c  -7.85c -3.93
iter:  19 18:45:42   -18.256995c  -8.10c -4.02c

Converged after 19 iterations.

Dipole moment: (-0.000000, -0.000000, -0.001401) |e|*Ang

Energy contributions relative to reference atoms: (reference = -61860.546967)

Kinetic:        +19.404253
Potential:      -16.883377
External:        +0.000000
XC:             -20.328814
Entropy (-ST):   -0.000891
Local:           -0.448612
SIC:             +0.000000
--------------------------
Free energy:    -18.257440
Extrapolated:   -18.256995

Showing only first 2 kpts
 Kpt  Band  Eigenvalues  Occupancy
  0    47     -3.42736    2.00000
  0    48     -3.17578    2.00000
  0    49     -2.87224    2.00000
  0    50     -2.53717    2.00000

  1    47     -3.35920    2.00000
  1    48     -3.10793    2.00000
  1    49     -2.80479    2.00000
  1    50     -2.47010    2.00000


Fermi level: -0.87876

No gap

Forces in eV/Ang:
  0 Na    0.00000    0.00000    0.00679
  1 Na    0.00000    0.00000   -0.00659
  2 Na    0.00000    0.00000   -0.01063
  3 Na    0.00000   -0.00000    0.00328
  4 Na    0.00000    0.00000   -0.00133
  5 Na   -0.00000   -0.00000    0.00234
  6 Na    0.00000    0.00000   -0.00294
  7 Na    0.00000    0.00000    0.00238
  8 Na    0.00000   -0.00000   -0.00262
  9 Na    0.00000    0.00000    0.00123
 10 Na    0.00000   -0.00000   -0.00302
 11 Na    0.00000    0.00000    0.00999
 12 Na    0.00000    0.00000    0.00862
 13 Na    0.00000    0.00000   -0.01012

System changes: positions 

Initializing position-dependent things.

Density initialized from wave functions
                     
                     
                     
                     
            Na       
                     
                     
                     
                     
       Na            
                     
            Na       
                     
                     
                     
                     
       Na            
                     
            Na       
                     
                     
                     
                     
       Na            
                     
                     
            Na       
                     
                     
                     
       Na            
                     
                     
            Na       
                     
                     
                     
                     
       Na            
                     
            Na       
                     
                     
                     
                     
       Na            
                     
            Na       
                     
                     
                     
                     
       Na            
                     
                     
                     
                     

Positions:
   0 Na    -0.000000   -0.000000   15.023284    ( 0.0000,  0.0000,  0.0000)
   1 Na     1.210473    1.711867   17.932977    ( 0.0000,  0.0000,  0.0000)
   2 Na    -0.000000    0.000000   20.932363    ( 0.0000,  0.0000,  0.0000)
   3 Na     1.210473    1.711867   23.890296    ( 0.0000,  0.0000,  0.0000)
   4 Na    -0.000000    0.000000   26.872154    ( 0.0000,  0.0000,  0.0000)
   5 Na     1.210473    1.711867   29.811246    ( 0.0000,  0.0000,  0.0000)
   6 Na     0.000000    0.000000   32.803713    ( 0.0000,  0.0000,  0.0000)
   7 Na     1.210473    1.711867   35.741868    ( 0.0000,  0.0000,  0.0000)
   8 Na    -0.000000    0.000000   38.734313    ( 0.0000,  0.0000,  0.0000)
   9 Na     1.210473    1.711867   41.673461    ( 0.0000,  0.0000,  0.0000)
  10 Na     0.000000   -0.000000   44.655375    ( 0.0000,  0.0000,  0.0000)
  11 Na     1.210473    1.711867   47.613102    ( 0.0000,  0.0000,  0.0000)
  12 Na     0.000000    0.000000   50.612558    ( 0.0000,  0.0000,  0.0000)
  13 Na     1.210473    1.711867   53.522161    ( 0.0000,  0.0000,  0.0000)

Unit cell:
           periodic     x           y           z      points  spacing
  1. axis:    yes    3.631418    0.000000    0.000000    20     0.1712
  2. axis:    yes   -1.210473    3.423733    0.000000    20     0.1712
  3. axis:    no     0.000000   -0.000000   68.545522   360     0.1904

  Lengths:   3.631418   3.631418  68.545522
  Angles:   90.000000  90.000000 109.471221

Effective grid spacing dv^(1/3) = 0.1809

     iter     time        total  log10-change:
                         energy   eigst   dens
iter:   1 18:45:46   -18.371686   -4.20
iter:   2 18:45:48   -20.019498   -3.52  -2.00
iter:   3 18:45:50   -18.693620   -4.06  -1.36
iter:   4 18:45:52   -18.261686   -4.79  -1.63
iter:   5 18:45:54   -18.257907   -5.70  -2.74
iter:   6 18:45:56   -18.257212c  -6.27  -3.03
iter:   7 18:45:58   -18.257174c  -6.74  -3.44
iter:   8 18:46:00   -18.257093c  -6.86  -3.49
iter:   9 18:46:02   -18.257093c  -6.89  -3.72
iter:  10 18:46:04   -18.257100c  -7.27  -3.75
iter:  11 18:46:06   -18.257076c  -7.72c -3.67
iter:  12 18:46:08   -18.257071c  -7.94c -3.83
iter:  13 18:46:10   -18.257065c  -7.87c -3.93
iter:  14 18:46:12   -18.257062c  -8.19c -4.14c

Converged after 14 iterations.

Dipole moment: (-0.000000, -0.000000, -0.000432) |e|*Ang

Energy contributions relative to reference atoms: (reference = -61860.546967)

Kinetic:        +19.397158
Potential:      -16.874405
External:        +0.000000
XC:             -20.331554
Entropy (-ST):   -0.000898
Local:           -0.447812
SIC:             +0.000000
--------------------------
Free energy:    -18.257511
Extrapolated:   -18.257062

Showing only first 2 kpts
 Kpt  Band  Eigenvalues  Occupancy
  0    47     -3.42696    2.00000
  0    48     -3.17595    2.00000
  0    49     -2.87049    2.00000
  0    50     -2.53567    2.00000

  1    47     -3.35880    2.00000
  1    48     -3.10810    2.00000
  1    49     -2.80303    2.00000
  1    50     -2.46861    2.00000


Fermi level: -0.87751

No gap

Forces in eV/Ang:
  0 Na    0.00000    0.00000    0.00439
  1 Na    0.00000    0.00000   -0.00448
  2 Na    0.00000    0.00000   -0.00861
  3 Na    0.00000    0.00000   -0.00029
  4 Na    0.00000    0.00000   -0.00123
  5 Na    0.00000   -0.00000    0.00230
  6 Na    0.00000    0.00000   -0.00287
  7 Na    0.00000    0.00000    0.00206
  8 Na    0.00000    0.00000   -0.00347
  9 Na   -0.00000    0.00000    0.00232
 10 Na    0.00000    0.00000   -0.00063
 11 Na    0.00000    0.00000    0.00963
 12 Na    0.00000    0.00000    0.00514
 13 Na    0.00000    0.00000   -0.00381

Timing:                                      incl.     excl.
-------------------------------------------------------------------
Density initialized from wave functions:     0.788     0.758   0.2% |
 Symmetrize density:                         0.030     0.030   0.0% |
Forces:                                      6.693     6.693   1.5% ||
Hamiltonian:                                 1.674     0.006   0.0% |
 Atomic:                                     0.131     0.131   0.0% |
  XC Correction:                             0.000     0.000   0.0% |
 Calculate atomic Hamiltonians:              0.622     0.622   0.1% |
 Communicate:                                0.000     0.000   0.0% |
 Initialize Hamiltonian:                     0.000     0.000   0.0% |
 Poisson:                                    0.010     0.010   0.0% |
 XC 3D grid:                                 0.904     0.904   0.2% |
LCAO initialization:                         1.286     0.008   0.0% |
 LCAO eigensolver:                           0.317     0.000   0.0% |
  Calculate projections:                     0.001     0.001   0.0% |
  DenseAtomicCorrection:                     0.004     0.004   0.0% |
  Distribute overlap matrix:                 0.000     0.000   0.0% |
  Orbital Layouts:                           0.017     0.017   0.0% |
  Potential matrix:                          0.292     0.292   0.1% |
  Sum over cells:                            0.002     0.002   0.0% |
 LCAO to grid:                               0.857     0.857   0.2% |
 Set positions (LCAO WFS):                   0.105     0.020   0.0% |
  Basic WFS set positions:                   0.001     0.001   0.0% |
  Basis functions set positions:             0.000     0.000   0.0% |
  P tci:                                     0.040     0.040   0.0% |
  ST tci:                                    0.033     0.033   0.0% |
  mktci:                                     0.011     0.011   0.0% |
PWDescriptor:                                0.617     0.617   0.1% |
Redistribute:                                0.003     0.003   0.0% |
SCF-cycle:                                 167.776     0.322   0.1% |
 Davidson:                                 124.361    46.328  10.3% |---|
  Apply H:                                   8.812     8.497   1.9% ||
   HMM T:                                    0.315     0.315   0.1% |
  Subspace diag:                            12.005     0.042   0.0% |
   calc_h_matrix:                            7.437     3.138   0.7% |
    Apply H:                                 4.299     4.157   0.9% |
     HMM T:                                  0.142     0.142   0.0% |
   diagonalize:                              0.553     0.553   0.1% |
   rotate_psi:                               3.974     3.974   0.9% |
  calc. matrices:                           37.315    28.580   6.4% |--|
   Apply H:                                  8.735     8.468   1.9% ||
    HMM T:                                   0.267     0.267   0.1% |
  diagonalize:                               4.534     4.534   1.0% |
  rotate_psi:                               15.367    15.367   3.4% ||
 Density:                                   15.460     0.001   0.0% |
  Atomic density matrices:                   0.158     0.158   0.0% |
  Mix:                                      12.424    12.424   2.8% ||
  Multipole moments:                         0.012     0.012   0.0% |
  Pseudo density:                            2.865     2.256   0.5% |
   Symmetrize density:                       0.609     0.609   0.1% |
 Hamiltonian:                               26.657     0.097   0.0% |
  Atomic:                                    2.148     2.148   0.5% |
   XC Correction:                            0.000     0.000   0.0% |
  Calculate atomic Hamiltonians:             9.975     9.975   2.2% ||
  Communicate:                               0.005     0.005   0.0% |
  Poisson:                                   0.159     0.159   0.0% |
  XC 3D grid:                               14.274    14.274   3.2% ||
 Orthonormalize:                             0.975     0.003   0.0% |
  calc_s_matrix:                             0.176     0.176   0.0% |
  inverse-cholesky:                          0.027     0.027   0.0% |
  projections:                               0.547     0.547   0.1% |
  rotate_psi_s:                              0.222     0.222   0.0% |
Set symmetry:                                0.002     0.002   0.0% |
Other:                                     270.428   270.428  60.2% |-----------------------|
-------------------------------------------------------------------
Total:                                               449.268 100.0%

Memory usage: 1005.77 MiB
Date: Wed Feb 26 18:50:38 2025
