
  ___ ___ ___ _ _ _  
 |   |   |_  | | | | 
 | | | | | . | | | | 
 |__ |  _|___|_____|  24.1.0
 |___|_|             

User:   husi@vera-r04-07
Date:   Wed Feb 26 19:21:56 2025
Arch:   x86_64
Pid:    1475527
CWD:    /cephyr/users/husi/Vera/A3
Python: 3.11.3
gpaw:   /apps/Arch/software/GPAW/24.1.0-foss-2023a/lib/python3.11/site-packages/gpaw
_gpaw:  /apps/Arch/software/GPAW/24.1.0-foss-2023a/lib/python3.11/site-packages/
        _gpaw.cpython-311-x86_64-linux-gnu.so
ase:    /apps/Arch/software/ASE/3.22.1-gfbf-2023a/lib/python3.11/site-packages/ase (version 3.22.1)
numpy:  /apps/Arch/software/SciPy-bundle/2023.07-gfbf-2023a/lib/python3.11/site-packages/numpy (version 1.25.1)
scipy:  /apps/Arch/software/SciPy-bundle/2023.07-gfbf-2023a/lib/python3.11/site-packages/scipy (version 1.11.1)
libxc:  6.2.2
units:  Angstrom and eV
cores: 32
OpenMP: False
OMP_NUM_THREADS: 1

Input parameters:
  kpts: [8 8 1]
  mode: {ecut: 500.0,
         name: pw}
  occupations: {fixmagmom: False,
                name: fermi-dirac,
                width: 0.01}
  xc: PBE

System changes: positions, numbers, cell, pbc, initial_charges, initial_magmoms 

Initialize ...

species:
  Na:
    name: Sodium
    id: d7ecbc49209718622bcbe287195dca2a
    Z: 11.0
    valence: 7
    core: 4
    charge: 0.0
    file: /apps/Common/software/GPAW-setups/24.1.0/Na.PBE.gz
    compensation charges: {type: gauss,
                           rc: 0.37,
                           lmax: 2}
    cutoffs: {filter: 2.17,
              core: 2.59}
    valence states:
      #              energy  rcut
      - 3s(1.00)    -2.744   1.201
      - 2p(6.00)   -28.672   1.217
      - 3p(0.00)    -0.743   1.217
      -  s          24.468   1.201
      -  d           0.000   1.238
  
    # Using partial waves for Na as LCAO basis

Reference energy: -70697.767962  # eV

Spin-paired calculation

Convergence criteria:
 Maximum [total energy] change in last 3 cyles: 0.0005 eV / valence electron
 Maximum integral of absolute [dens]ity change: 0.0001 electrons / valence electron
 Maximum integral of absolute [eigenst]ate change: 4e-08 eV^2 / valence electron
 Maximum number of scf [iter]ations: 333
 (Square brackets indicate name in SCF output, whereas a 'c' in
 the SCF output indicates the quantity has converged.)

Symmetries present (total): 12

  ( 1  0  0)  ( 1  0  0)  ( 1 -1  0)  ( 1 -1  0)  ( 0  1  0)  ( 0  1  0)
  ( 1 -1  0)  ( 0  1  0)  ( 1  0  0)  ( 0 -1  0)  ( 1  0  0)  (-1  1  0)
  ( 0  0 -1)  ( 0  0  1)  ( 0  0 -1)  ( 0  0  1)  ( 0  0  1)  ( 0  0 -1)

  ( 0 -1  0)  ( 0 -1  0)  (-1  1  0)  (-1  1  0)  (-1  0  0)  (-1  0  0)
  ( 1 -1  0)  (-1  0  0)  ( 0  1  0)  (-1  0  0)  ( 0 -1  0)  (-1  1  0)
  ( 0  0  1)  ( 0  0 -1)  ( 0  0 -1)  ( 0  0  1)  ( 0  0 -1)  ( 0  0  1)
Note: your k-points are not as symmetric as your crystal!

64 k-points: 8 x 8 x 1 Monkhorst-Pack grid
20 k-points in the irreducible part of the Brillouin zone
       k-points in crystal coordinates                weights
   0:     0.06250000   -0.06250000    0.00000000          2/64
   1:     0.06250000    0.06250000    0.00000000          2/64
   2:     0.18750000   -0.18750000    0.00000000          2/64
   3:     0.18750000   -0.06250000    0.00000000          4/64
   4:     0.18750000    0.06250000    0.00000000          4/64
   5:     0.18750000    0.18750000    0.00000000          2/64
   6:     0.31250000   -0.31250000    0.00000000          2/64
   7:     0.31250000   -0.18750000    0.00000000          4/64
   8:     0.31250000   -0.06250000    0.00000000          4/64
   9:     0.31250000    0.06250000    0.00000000          4/64
          ...
  19:     0.43750000    0.43750000    0.00000000          2/64

Wave functions: Plane wave expansion
  Cutoff energy: 500.000 eV
  Number of coefficients (min, max): 37173, 37283
  Pulay-stress correction: 0.000000 eV/Ang^3 (de/decut=0.000000)
  Using FFTW library
  ScaLapack parameters: grid=1x1, blocksize=None
  Wavefunction extrapolation:
    Improved wavefunction reuse through dual PAW basis 

Occupation numbers: Fermi-Dirac:
  width: 0.0100  # eV
 

Eigensolver
   Davidson(niter=2) 

Densities:
  Coarse grid: 32*32*250 grid
  Fine grid: 64*64*500 grid
  Total Charge: 0.000000 

Density mixing:
  Method: separate
  Backend: pulay
  Linear mixing parameter: 0.05
  old densities: 5
  Damping of long wavelength oscillations: 50 

Hamiltonian:
  XC and Coulomb potentials evaluated on a 64*64*500 grid
  Using the PBE Exchange-Correlation functional
  External potential:
    NoExternalPotential
 

XC parameters: PBE with 2 nearest neighbor stencil

Memory estimate:
  Process memory now: 1126.07 MiB
  Calculator: 205.56 MiB
    Density: 109.69 MiB
      Arrays: 50.78 MiB
      Localized functions: 39.37 MiB
      Mixer: 19.53 MiB
    Hamiltonian: 34.01 MiB
      Arrays: 33.20 MiB
      XC: 0.00 MiB
      Poisson: 0.00 MiB
      vbar: 0.81 MiB
    Wavefunctions: 61.86 MiB
      Arrays psit_nG: 25.60 MiB
      Eigensolver: 3.64 MiB
      Projections: 0.14 MiB
      Projectors: 19.87 MiB
      PW-descriptor: 12.61 MiB

Total number of cores used: 32
Parallelization over k-points: 4
Parallelization over states: 8

Number of atoms: 16
Number of atomic orbitals: 112
Number of bands in calculation: 72
Number of valence electrons: 112
Bands to converge: occupied

... initialized

Initializing position-dependent things.

Density initialized from atomic densities
Creating initial wave functions:
  72 bands from LCAO basis set

                                  
                                  
                                  
                                  
                                  
                                  
                                  
       Na      Na                 
                        Na        
                                  
                                  
                                  
               Na    Na Na        
                  Na              
                                  
                                  
               Na                 
                        Na        
                                  
                                  
                     Na           
               Na       Na        
                                  
                                  
                                  
               Na    Na           
                        Na        
                                  
                                  
       Na                         
                                  
                                  
                                  
                                  

Positions:
   0 Na     0.000000    0.000000   15.000000    ( 0.0000,  0.0000,  0.0000)
   1 Na     5.930080    3.423733   16.210473    ( 0.0000,  0.0000,  0.0000)
   2 Na     2.965040    1.711867   17.420945    ( 0.0000,  0.0000,  0.0000)
   3 Na     5.930080    0.000000   18.631418    ( 0.0000,  0.0000,  0.0000)
   4 Na     5.930080    3.423733   19.841890    ( 0.0000,  0.0000,  0.0000)
   5 Na     2.965040    1.711867   21.052363    ( 0.0000,  0.0000,  0.0000)
   6 Na     5.930080    0.000000   22.262835    ( 0.0000,  0.0000,  0.0000)
   7 Na     5.930080    3.423733   23.473308    ( 0.0000,  0.0000,  0.0000)
   8 Na     2.965040    1.711867   24.683781    ( 0.0000,  0.0000,  0.0000)
   9 Na     2.965040    5.135600   25.894253    ( 0.0000,  0.0000,  0.0000)
  10 Na     5.930080    3.423733   27.104726    ( 0.0000,  0.0000,  0.0000)
  11 Na     2.965040    1.711867   28.315198    ( 0.0000,  0.0000,  0.0000)
  12 Na     5.930080    0.000000   29.525671    ( 0.0000,  0.0000,  0.0000)
  13 Na     5.930080    3.423733   30.736143    ( 0.0000,  0.0000,  0.0000)
  14 Na     2.965040    1.711867   31.946616    ( 0.0000,  0.0000,  0.0000)
  15 Na     0.000000    0.000000   33.157089    ( 0.0000,  0.0000,  0.0000)

Unit cell:
           periodic     x           y           z      points  spacing
  1. axis:    yes    5.930080    0.000000    0.000000    32     0.1605
  2. axis:    yes    2.965040    5.135600    0.000000    32     0.1605
  3. axis:    no     0.000000    0.000000   48.157089   250     0.1926

  Lengths:   5.930080   5.930080  48.157089
  Angles:   90.000000  90.000000  60.000000

Effective grid spacing dv^(1/3) = 0.1789

     iter     time        total  log10-change:
                         energy   eigst   dens
iter:   1 19:22:06   -20.405682
iter:   2 19:22:10   -20.310915   -1.36  -1.56
iter:   3 19:22:14   -20.274763   -2.05  -1.64
iter:   4 19:22:19   -20.242288   -2.36  -1.67
iter:   5 19:22:23   -20.189912   -2.81  -1.83
iter:   6 19:22:27   -20.216094c  -2.76  -2.00
iter:   7 19:22:31   -20.197422c  -3.30  -2.29
iter:   8 19:22:35   -20.194761c  -3.77  -2.54
iter:   9 19:22:39   -20.193638c  -4.22  -2.99
iter:  10 19:22:43   -20.191369c  -4.21  -3.06
iter:  11 19:22:47   -20.191327c  -4.81  -3.68
iter:  12 19:22:51   -20.191331c  -5.30  -3.75
iter:  13 19:22:55   -20.191332c  -5.68  -3.78
iter:  14 19:22:59   -20.191352c  -5.81  -3.81
iter:  15 19:23:03   -20.191356c  -6.24  -4.03c
iter:  16 19:23:08   -20.191361c  -6.55  -4.07c
iter:  17 19:23:12   -20.191365c  -6.75  -4.16c
iter:  18 19:23:16   -20.191365c  -7.11  -4.31c
iter:  19 19:23:20   -20.191363c  -7.48c -4.40c

Converged after 19 iterations.

Dipole moment: (0.000000, -0.000000, 0.000000) |e|*Ang

Energy contributions relative to reference atoms: (reference = -70697.767962)

Kinetic:        +20.135883
Potential:      -17.755597
External:        +0.000000
XC:             -22.065498
Entropy (-ST):   -0.003802
Local:           -0.504251
SIC:             +0.000000
--------------------------
Free energy:    -20.193265
Extrapolated:   -20.191363

Showing only first 2 kpts
 Kpt  Band  Eigenvalues  Occupancy
  0    54     -1.11184    0.00000
  0    55     -0.32858    0.00000
  0    56     -0.03186    0.00000
  0    57     -0.02647    0.00000

  1    54     -1.15452    0.00000
  1    55     -0.36910    0.00000
  1    56      0.24442    0.00000
  1    57      0.36895    0.00000


Fermi level: -1.40505

No gap

Forces in eV/Ang:
  0 Na    0.00000    0.00000    0.05416
  1 Na    0.00000   -0.00000    0.04611
  2 Na    0.00000    0.00000   -0.06982
  3 Na   -0.00000    0.00000   -0.02558
  4 Na    0.00000    0.00000   -0.00999
  5 Na   -0.00000   -0.00000   -0.01199
  6 Na    0.00000    0.00000   -0.00066
  7 Na    0.00000    0.00000    0.00532
  8 Na    0.00000   -0.00000   -0.00532
  9 Na    0.00000   -0.00000    0.00066
 10 Na   -0.00000    0.00000    0.01199
 11 Na    0.00000   -0.00000    0.00999
 12 Na   -0.00000   -0.00000    0.02558
 13 Na    0.00000   -0.00000    0.06982
 14 Na    0.00000    0.00000   -0.04611
 15 Na    0.00000    0.00000   -0.05416

System changes: positions 

Initializing position-dependent things.

Density initialized from wave functions
                                  
                                  
                                  
                                  
                                  
                                  
                                  
       Na      Na                 
                        Na        
                                  
                                  
                                  
               Na    Na Na        
                  Na              
                                  
                                  
               Na                 
                        Na        
                                  
                                  
                     Na           
               Na       Na        
                                  
                                  
                                  
               Na    Na           
                        Na        
                                  
                                  
       Na                         
                                  
                                  
                                  
                                  

Positions:
   0 Na     0.000000    0.000000   15.000774    ( 0.0000,  0.0000,  0.0000)
   1 Na     5.930080    3.423733   16.211131    ( 0.0000,  0.0000,  0.0000)
   2 Na     2.965040    1.711867   17.419948    ( 0.0000,  0.0000,  0.0000)
   3 Na     5.930080    0.000000   18.631052    ( 0.0000,  0.0000,  0.0000)
   4 Na     5.930080    3.423733   19.841748    ( 0.0000,  0.0000,  0.0000)
   5 Na     2.965040    1.711867   21.052192    ( 0.0000,  0.0000,  0.0000)
   6 Na     5.930080    0.000000   22.262826    ( 0.0000,  0.0000,  0.0000)
   7 Na     5.930080    3.423733   23.473384    ( 0.0000,  0.0000,  0.0000)
   8 Na     2.965040    1.711867   24.683705    ( 0.0000,  0.0000,  0.0000)
   9 Na     2.965040    5.135600   25.894263    ( 0.0000,  0.0000,  0.0000)
  10 Na     5.930080    3.423733   27.104897    ( 0.0000,  0.0000,  0.0000)
  11 Na     2.965040    1.711867   28.315341    ( 0.0000,  0.0000,  0.0000)
  12 Na     5.930080    0.000000   29.526036    ( 0.0000,  0.0000,  0.0000)
  13 Na     5.930080    3.423733   30.737141    ( 0.0000,  0.0000,  0.0000)
  14 Na     2.965040    1.711867   31.945957    ( 0.0000,  0.0000,  0.0000)
  15 Na     0.000000    0.000000   33.156315    ( 0.0000,  0.0000,  0.0000)

Unit cell:
           periodic     x           y           z      points  spacing
  1. axis:    yes    5.930080    0.000000    0.000000    32     0.1605
  2. axis:    yes    2.965040    5.135600    0.000000    32     0.1605
  3. axis:    no     0.000000    0.000000   48.157089   250     0.1926

  Lengths:   5.930080   5.930080  48.157089
  Angles:   90.000000  90.000000  60.000000

Effective grid spacing dv^(1/3) = 0.1789

     iter     time        total  log10-change:
                         energy   eigst   dens
iter:   1 19:23:28   -20.191974   -5.44
iter:   2 19:23:32   -20.191695   -6.14  -3.22
iter:   3 19:23:36   -20.191678c  -6.72  -3.93
iter:   4 19:23:40   -20.191678c  -7.13  -4.20c
iter:   5 19:23:44   -20.191677c  -7.56c -4.49c

Converged after 5 iterations.

Dipole moment: (0.000000, -0.000000, -0.000000) |e|*Ang

Energy contributions relative to reference atoms: (reference = -70697.767962)

Kinetic:        +19.686537
Potential:      -17.355568
External:        +0.000000
XC:             -22.010751
Entropy (-ST):   -0.003798
Local:           -0.509995
SIC:             +0.000000
--------------------------
Free energy:    -20.193576
Extrapolated:   -20.191677

Showing only first 2 kpts
 Kpt  Band  Eigenvalues  Occupancy
  0    54     -1.11149    0.00000
  0    55     -0.32812    0.00000
  0    56     -0.03159    0.00000
  0    57     -0.02619    0.00000

  1    54     -1.15416    0.00000
  1    55     -0.36865    0.00000
  1    56      0.24469    0.00000
  1    57      0.36929    0.00000


Fermi level: -1.40487

No gap

Forces in eV/Ang:
  0 Na   -0.00000   -0.00000    0.05674
  1 Na   -0.00000    0.00000    0.04525
  2 Na    0.00000    0.00000   -0.06998
  3 Na   -0.00000    0.00000   -0.02527
  4 Na    0.00000   -0.00000   -0.00820
  5 Na    0.00000   -0.00000   -0.01156
  6 Na    0.00000    0.00000   -0.00135
  7 Na    0.00000    0.00000    0.00474
  8 Na    0.00000   -0.00000   -0.00474
  9 Na    0.00000   -0.00000    0.00135
 10 Na    0.00000    0.00000    0.01156
 11 Na    0.00000   -0.00000    0.00820
 12 Na    0.00000    0.00000    0.02527
 13 Na    0.00000   -0.00000    0.06998
 14 Na    0.00000    0.00000   -0.04525
 15 Na    0.00000    0.00000   -0.05674

System changes: positions 

Initializing position-dependent things.

Density initialized from wave functions
                                  
                                  
                                  
                                  
                                  
                                  
                                  
       Na      Na                 
                        Na        
                                  
                                  
                     Na           
               Na       Na        
                  Na              
                                  
                                  
               Na                 
                        Na        
                                  
                                  
                     Na           
               Na       Na        
                                  
                                  
                                  
               Na    Na           
                        Na        
                                  
                                  
       Na                         
                                  
                                  
                                  
                                  

Positions:
   0 Na    -0.000000   -0.000000   15.099293    ( 0.0000,  0.0000,  0.0000)
   1 Na     5.930080    3.423733   16.288860    ( 0.0000,  0.0000,  0.0000)
   2 Na     2.965040    1.711867   17.299307    ( 0.0000,  0.0000,  0.0000)
   3 Na     5.930080    0.000000   18.587595    ( 0.0000,  0.0000,  0.0000)
   4 Na     5.930080    3.423733   19.828136    ( 0.0000,  0.0000,  0.0000)
   5 Na     2.965040    1.711867   21.032384    ( 0.0000,  0.0000,  0.0000)
   6 Na     5.930080    0.000000   22.260292    ( 0.0000,  0.0000,  0.0000)
   7 Na     5.930080    3.423733   23.481393    ( 0.0000,  0.0000,  0.0000)
   8 Na     2.965040    1.711867   24.675696    ( 0.0000,  0.0000,  0.0000)
   9 Na     2.965040    5.135600   25.896797    ( 0.0000,  0.0000,  0.0000)
  10 Na     5.930080    3.423733   27.124705    ( 0.0000,  0.0000,  0.0000)
  11 Na     2.965040    1.711867   28.328953    ( 0.0000,  0.0000,  0.0000)
  12 Na     5.930080    0.000000   29.569494    ( 0.0000,  0.0000,  0.0000)
  13 Na     5.930080    3.423733   30.857782    ( 0.0000,  0.0000,  0.0000)
  14 Na     2.965040    1.711867   31.868229    ( 0.0000,  0.0000,  0.0000)
  15 Na     0.000000    0.000000   33.057796    ( 0.0000,  0.0000,  0.0000)

Unit cell:
           periodic     x           y           z      points  spacing
  1. axis:    yes    5.930080    0.000000    0.000000    32     0.1605
  2. axis:    yes    2.965040    5.135600    0.000000    32     0.1605
  3. axis:    no     0.000000    0.000000   48.157089   250     0.1926

  Lengths:   5.930080   5.930080  48.157089
  Angles:   90.000000  90.000000  60.000000

Effective grid spacing dv^(1/3) = 0.1789

     iter     time        total  log10-change:
                         energy   eigst   dens
iter:   1 19:23:53   -24.986017   -1.79
iter:   2 19:23:57   -20.428300   -2.45  -1.14
iter:   3 19:24:01   -20.241553   -3.37  -1.86
iter:   4 19:24:05   -20.228087   -3.85  -2.18
iter:   5 19:24:09   -20.212504c  -3.73  -2.29
iter:   6 19:24:13   -20.214021c  -4.50  -2.77
iter:   7 19:24:17   -20.212624c  -4.82  -2.75
iter:   8 19:24:21   -20.212458c  -4.93  -2.98
iter:   9 19:24:25   -20.212444c  -5.38  -3.43
iter:  10 19:24:29   -20.212446c  -5.82  -3.71
iter:  11 19:24:33   -20.212445c  -6.02  -3.73
iter:  12 19:24:37   -20.212447c  -6.45  -4.32c
iter:  13 19:24:41   -20.212449c  -6.83  -4.42c
iter:  14 19:24:46   -20.212449c  -7.18  -4.49c
iter:  15 19:24:50   -20.212450c  -7.50c -4.52c

Converged after 15 iterations.

Dipole moment: (0.000000, -0.000000, -0.000000) |e|*Ang

Energy contributions relative to reference atoms: (reference = -70697.767962)

Kinetic:        +20.521165
Potential:      -17.969030
External:        +0.000000
XC:             -22.255218
Entropy (-ST):   -0.003325
Local:           -0.507704
SIC:             +0.000000
--------------------------
Free energy:    -20.214112
Extrapolated:   -20.212450

Showing only first 2 kpts
 Kpt  Band  Eigenvalues  Occupancy
  0    54     -1.07893    0.00000
  0    55     -0.28266    0.00000
  0    56     -0.03001    0.00000
  0    57     -0.02217    0.00000

  1    54     -1.12160    0.00000
  1    55     -0.32314    0.00000
  1    56      0.24760    0.00000
  1    57      0.40727    0.00000


Fermi level: -1.40840

No gap

Forces in eV/Ang:
  0 Na    0.00000    0.00000   -0.00141
  1 Na    0.00000   -0.00000    0.00779
  2 Na    0.00000    0.00000   -0.01444
  3 Na    0.00000    0.00000    0.02913
  4 Na    0.00000    0.00000    0.01610
  5 Na    0.00000   -0.00000   -0.03105
  6 Na    0.00000   -0.00000   -0.01036
  7 Na    0.00000    0.00000   -0.00032
  8 Na    0.00000   -0.00000    0.00032
  9 Na    0.00000    0.00000    0.01036
 10 Na    0.00000   -0.00000    0.03105
 11 Na    0.00000   -0.00000   -0.01610
 12 Na    0.00000   -0.00000   -0.02913
 13 Na    0.00000   -0.00000    0.01444
 14 Na   -0.00000    0.00000   -0.00779
 15 Na    0.00000   -0.00000    0.00141

System changes: positions 

Initializing position-dependent things.

Density initialized from wave functions
                                  
                                  
                                  
                                  
                                  
                                  
                                  
       Na      Na                 
                        Na        
                                  
                                  
                     Na           
               Na       Na        
                  Na              
                                  
                                  
               Na                 
                        Na        
                                  
                                  
                     Na           
               Na       Na        
                                  
                                  
                                  
               Na    Na           
                        Na        
                                  
                                  
       Na                         
                                  
                                  
                                  
                                  

Positions:
   0 Na    -0.000000   -0.000000   15.107022    ( 0.0000,  0.0000,  0.0000)
   1 Na     5.930080    3.423733   16.295083    ( 0.0000,  0.0000,  0.0000)
   2 Na     2.965040    1.711867   17.289606    ( 0.0000,  0.0000,  0.0000)
   3 Na     5.930080    0.000000   18.584630    ( 0.0000,  0.0000,  0.0000)
   4 Na     5.930080    3.423733   19.827322    ( 0.0000,  0.0000,  0.0000)
   5 Na     2.965040    1.711867   21.030352    ( 0.0000,  0.0000,  0.0000)
   6 Na     5.930080    0.000000   22.259930    ( 0.0000,  0.0000,  0.0000)
   7 Na     5.930080    3.423733   23.482015    ( 0.0000,  0.0000,  0.0000)
   8 Na     2.965040    1.711867   24.675074    ( 0.0000,  0.0000,  0.0000)
   9 Na     2.965040    5.135600   25.897158    ( 0.0000,  0.0000,  0.0000)
  10 Na     5.930080    3.423733   27.126737    ( 0.0000,  0.0000,  0.0000)
  11 Na     2.965040    1.711867   28.329767    ( 0.0000,  0.0000,  0.0000)
  12 Na     5.930080    0.000000   29.572459    ( 0.0000,  0.0000,  0.0000)
  13 Na     5.930080    3.423733   30.867482    ( 0.0000,  0.0000,  0.0000)
  14 Na     2.965040    1.711867   31.862006    ( 0.0000,  0.0000,  0.0000)
  15 Na     0.000000    0.000000   33.050067    ( 0.0000,  0.0000,  0.0000)

Unit cell:
           periodic     x           y           z      points  spacing
  1. axis:    yes    5.930080    0.000000    0.000000    32     0.1605
  2. axis:    yes    2.965040    5.135600    0.000000    32     0.1605
  3. axis:    no     0.000000    0.000000   48.157089   250     0.1926

  Lengths:   5.930080   5.930080  48.157089
  Angles:   90.000000  90.000000  60.000000

Effective grid spacing dv^(1/3) = 0.1789

     iter     time        total  log10-change:
                         energy   eigst   dens
iter:   1 19:24:58   -20.239610   -4.06
iter:   2 19:25:02   -20.214554   -4.69  -2.24
iter:   3 19:25:06   -20.212747c  -5.55  -2.89
iter:   4 19:25:10   -20.212653c  -5.93  -3.31
iter:   5 19:25:14   -20.212627c  -6.28  -3.53
iter:   6 19:25:18   -20.212596c  -6.60  -3.68
iter:   7 19:25:22   -20.212598c  -7.02  -3.98
iter:   8 19:25:27   -20.212599c  -7.11  -4.15c
iter:   9 19:25:31   -20.212599c  -7.64c -4.77c

Converged after 9 iterations.

Dipole moment: (0.000000, -0.000000, -0.000000) |e|*Ang

Energy contributions relative to reference atoms: (reference = -70697.767962)

Kinetic:        +20.672014
Potential:      -18.090464
External:        +0.000000
XC:             -22.283199
Entropy (-ST):   -0.003267
Local:           -0.509316
SIC:             +0.000000
--------------------------
Free energy:    -20.214232
Extrapolated:   -20.212599

Showing only first 2 kpts
 Kpt  Band  Eigenvalues  Occupancy
  0    54     -1.07718    0.00000
  0    55     -0.27969    0.00000
  0    56     -0.03109    0.00000
  0    57     -0.02303    0.00000

  1    54     -1.11984    0.00000
  1    55     -0.32017    0.00000
  1    56      0.24663    0.00000
  1    57      0.40976    0.00000


Fermi level: -1.40998

No gap

Forces in eV/Ang:
  0 Na   -0.00000    0.00000   -0.00775
  1 Na   -0.00000   -0.00000    0.00424
  2 Na    0.00000    0.00000   -0.00891
  3 Na   -0.00000    0.00000    0.03498
  4 Na    0.00000    0.00000    0.01790
  5 Na   -0.00000   -0.00000   -0.03228
  6 Na    0.00000   -0.00000   -0.01082
  7 Na    0.00000    0.00000   -0.00003
  8 Na    0.00000   -0.00000    0.00003
  9 Na    0.00000    0.00000    0.01082
 10 Na    0.00000    0.00000    0.03228
 11 Na   -0.00000    0.00000   -0.01790
 12 Na   -0.00000   -0.00000   -0.03498
 13 Na    0.00000   -0.00000    0.00891
 14 Na    0.00000    0.00000   -0.00424
 15 Na    0.00000   -0.00000    0.00775

System changes: positions 

Initializing position-dependent things.

Density initialized from wave functions
                                  
                                  
                                  
                                  
                                  
                                  
                                  
       Na      Na                 
                        Na        
                                  
                                  
                     Na           
               Na       Na        
                  Na              
                                  
                                  
               Na                 
                        Na        
                                  
                                  
                     Na           
               Na       Na        
                                  
                                  
                                  
               Na    Na           
                        Na        
                                  
                                  
       Na                         
                                  
                                  
                                  
                                  

Positions:
   0 Na    -0.000000   -0.000000   15.107386    ( 0.0000,  0.0000,  0.0000)
   1 Na     5.930080    3.423733   16.295554    ( 0.0000,  0.0000,  0.0000)
   2 Na     2.965040    1.711867   17.288820    ( 0.0000,  0.0000,  0.0000)
   3 Na     5.930080    0.000000   18.585092    ( 0.0000,  0.0000,  0.0000)
   4 Na     5.930080    3.423733   19.827614    ( 0.0000,  0.0000,  0.0000)
   5 Na     2.965040    1.711867   21.029619    ( 0.0000,  0.0000,  0.0000)
   6 Na     5.930080    0.000000   22.259700    ( 0.0000,  0.0000,  0.0000)
   7 Na     5.930080    3.423733   23.482048    ( 0.0000,  0.0000,  0.0000)
   8 Na     2.965040    1.711867   24.675041    ( 0.0000,  0.0000,  0.0000)
   9 Na     2.965040    5.135600   25.897388    ( 0.0000,  0.0000,  0.0000)
  10 Na     5.930080    3.423733   27.127469    ( 0.0000,  0.0000,  0.0000)
  11 Na     2.965040    1.711867   28.329474    ( 0.0000,  0.0000,  0.0000)
  12 Na     5.930080    0.000000   29.571996    ( 0.0000,  0.0000,  0.0000)
  13 Na     5.930080    3.423733   30.868269    ( 0.0000,  0.0000,  0.0000)
  14 Na     2.965040    1.711867   31.861534    ( 0.0000,  0.0000,  0.0000)
  15 Na     0.000000    0.000000   33.049703    ( 0.0000,  0.0000,  0.0000)

Unit cell:
           periodic     x           y           z      points  spacing
  1. axis:    yes    5.930080    0.000000    0.000000    32     0.1605
  2. axis:    yes    2.965040    5.135600    0.000000    32     0.1605
  3. axis:    no     0.000000    0.000000   48.157089   250     0.1926

  Lengths:   5.930080   5.930080  48.157089
  Angles:   90.000000  90.000000  60.000000

Effective grid spacing dv^(1/3) = 0.1789

     iter     time        total  log10-change:
                         energy   eigst   dens
iter:   1 19:25:39   -20.212736   -6.15
iter:   2 19:25:43   -20.212706   -6.91  -3.69
iter:   3 19:25:47   -20.212705c  -7.45c -4.04c

Converged after 3 iterations.

Dipole moment: (0.000000, -0.000000, -0.000000) |e|*Ang

Energy contributions relative to reference atoms: (reference = -70697.767962)

Kinetic:        +20.616666
Potential:      -18.041272
External:        +0.000000
XC:             -22.276764
Entropy (-ST):   -0.003274
Local:           -0.509698
SIC:             +0.000000
--------------------------
Free energy:    -20.214342
Extrapolated:   -20.212705

Showing only first 2 kpts
 Kpt  Band  Eigenvalues  Occupancy
  0    54     -1.07700    0.00000
  0    55     -0.27944    0.00000
  0    56     -0.03092    0.00000
  0    57     -0.02283    0.00000

  1    54     -1.11966    0.00000
  1    55     -0.31992    0.00000
  1    56      0.24682    0.00000
  1    57      0.40993    0.00000


Fermi level: -1.40971

No gap

Forces in eV/Ang:
  0 Na    0.00000    0.00000   -0.00714
  1 Na   -0.00000   -0.00000    0.00416
  2 Na    0.00000   -0.00000   -0.00711
  3 Na   -0.00000    0.00000    0.03499
  4 Na    0.00000    0.00000    0.01912
  5 Na    0.00000   -0.00000   -0.03198
  6 Na    0.00000   -0.00000   -0.01336
  7 Na   -0.00000   -0.00000   -0.00190
  8 Na   -0.00000   -0.00000    0.00190
  9 Na   -0.00000    0.00000    0.01336
 10 Na    0.00000    0.00000    0.03198
 11 Na    0.00000   -0.00000   -0.01912
 12 Na   -0.00000    0.00000   -0.03499
 13 Na    0.00000    0.00000    0.00711
 14 Na   -0.00000    0.00000   -0.00416
 15 Na    0.00000   -0.00000    0.00714

System changes: positions 

Initializing position-dependent things.

Density initialized from wave functions
                                  
                                  
                                  
                                  
                                  
                                  
                                  
       Na               Na        
               Na                 
                                  
                                  
                                  
               Na Na Na Na        
                                  
                                  
                                  
               Na                 
                        Na        
                                  
                                  
                                  
               Na    Na Na        
                                  
                                  
                                  
                     Na Na        
               Na                 
                                  
                                  
       Na                         
                                  
                                  
                                  
                                  

Positions:
   0 Na    -0.000000   -0.000000   15.158446    ( 0.0000,  0.0000,  0.0000)
   1 Na     5.930080    3.423733   16.388243    ( 0.0000,  0.0000,  0.0000)
   2 Na     2.965040    1.711867   17.130761    ( 0.0000,  0.0000,  0.0000)
   3 Na     5.930080    0.000000   18.742796    ( 0.0000,  0.0000,  0.0000)
   4 Na     5.930080    3.423733   19.921099    ( 0.0000,  0.0000,  0.0000)
   5 Na     2.965040    1.711867   20.829619    ( 0.0000,  0.0000,  0.0000)
   6 Na     5.930080    0.000000   22.192165    ( 0.0000,  0.0000,  0.0000)
   7 Na     5.930080    3.423733   23.485257    ( 0.0000,  0.0000,  0.0000)
   8 Na     2.965040    1.711867   24.671832    ( 0.0000,  0.0000,  0.0000)
   9 Na     2.965040    5.135600   25.964923    ( 0.0000,  0.0000,  0.0000)
  10 Na     5.930080    3.423733   27.327469    ( 0.0000,  0.0000,  0.0000)
  11 Na     2.965040    1.711867   28.235990    ( 0.0000,  0.0000,  0.0000)
  12 Na     5.930080    0.000000   29.414292    ( 0.0000,  0.0000,  0.0000)
  13 Na     5.930080    3.423733   31.026328    ( 0.0000,  0.0000,  0.0000)
  14 Na     2.965040    1.711867   31.768846    ( 0.0000,  0.0000,  0.0000)
  15 Na     0.000000    0.000000   32.998643    ( 0.0000,  0.0000,  0.0000)

Unit cell:
           periodic     x           y           z      points  spacing
  1. axis:    yes    5.930080    0.000000    0.000000    32     0.1605
  2. axis:    yes    2.965040    5.135600    0.000000    32     0.1605
  3. axis:    no     0.000000    0.000000   48.157089   250     0.1926

  Lengths:   5.930080   5.930080  48.157089
  Angles:   90.000000  90.000000  60.000000

Effective grid spacing dv^(1/3) = 0.1789

     iter     time        total  log10-change:
                         energy   eigst   dens
iter:   1 19:25:55   -21.100586   -1.48
iter:   2 19:25:59   -20.574874   -2.59  -1.54
iter:   3 19:26:04   -20.316495   -3.11  -1.65
iter:   4 19:26:08   -20.197228   -3.22  -1.91
iter:   5 19:26:12   -20.188386   -3.83  -2.25
iter:   6 19:26:16   -20.184405c  -4.02  -2.44
iter:   7 19:26:20   -20.184386c  -4.56  -2.64
iter:   8 19:26:24   -20.184812c  -4.47  -2.77
iter:   9 19:26:28   -20.184819c  -4.99  -3.51
iter:  10 19:26:32   -20.184824c  -5.38  -3.59
iter:  11 19:26:36   -20.184838c  -5.66  -3.61
iter:  12 19:26:40   -20.184846c  -5.96  -3.95
iter:  13 19:26:44   -20.184847c  -6.34  -4.43c
iter:  14 19:26:49   -20.184848c  -6.65  -4.48c
iter:  15 19:26:53   -20.184848c  -6.94  -4.50c
iter:  16 19:26:57   -20.184848c  -7.24  -4.52c
iter:  17 19:27:01   -20.184848c  -7.48c -4.53c

Converged after 17 iterations.

Dipole moment: (0.000000, -0.000000, -0.000000) |e|*Ang

Energy contributions relative to reference atoms: (reference = -70697.767962)

Kinetic:        +21.217461
Potential:      -18.475647
External:        +0.000000
XC:             -22.416395
Entropy (-ST):   -0.002636
Local:           -0.508950
SIC:             +0.000000
--------------------------
Free energy:    -20.186166
Extrapolated:   -20.184848

Showing only first 2 kpts
 Kpt  Band  Eigenvalues  Occupancy
  0    54     -1.06326    0.00000
  0    55     -0.24091    0.00000
  0    56     -0.04769    0.00000
  0    57     -0.03045    0.00000

  1    54     -1.10580    0.00000
  1    55     -0.28126    0.00000
  1    56      0.23386    0.00000
  1    57      0.39813    0.00000


Fermi level: -1.43107

No gap

Forces in eV/Ang:
  0 Na    0.00000    0.00000    0.00759
  1 Na    0.00000   -0.00000    0.00401
  2 Na    0.00000   -0.00000    0.04028
  3 Na   -0.00000    0.00000   -0.12213
  4 Na   -0.00000    0.00000   -0.02120
  5 Na    0.00000   -0.00000    0.05890
  6 Na    0.00000    0.00000    0.08969
  7 Na    0.00000   -0.00000    0.05064
  8 Na    0.00000   -0.00000   -0.05064
  9 Na    0.00000   -0.00000   -0.08969
 10 Na   -0.00000    0.00000   -0.05890
 11 Na    0.00000   -0.00000    0.02120
 12 Na    0.00000   -0.00000    0.12213
 13 Na   -0.00000    0.00000   -0.04028
 14 Na    0.00000    0.00000   -0.00401
 15 Na    0.00000    0.00000   -0.00759

System changes: positions 

Initializing position-dependent things.

Density initialized from wave functions
                                  
                                  
                                  
                                  
                                  
                                  
                                  
       Na                         
               Na       Na        
                                  
                                  
                     Na           
               Na       Na        
                  Na              
                                  
                                  
               Na                 
                        Na        
                                  
                                  
                     Na           
               Na       Na        
                                  
                                  
                                  
               Na    Na Na        
                                  
                                  
                                  
       Na                         
                                  
                                  
                                  
                                  

Positions:
   0 Na    -0.000000   -0.000000   15.120108    ( 0.0000,  0.0000,  0.0000)
   1 Na     5.930080    3.423733   16.319417    ( 0.0000,  0.0000,  0.0000)
   2 Na     2.965040    1.711867   17.248226    ( 0.0000,  0.0000,  0.0000)
   3 Na     5.930080    0.000000   18.626516    ( 0.0000,  0.0000,  0.0000)
   4 Na     5.930080    3.423733   19.852254    ( 0.0000,  0.0000,  0.0000)
   5 Na     2.965040    1.711867   20.977286    ( 0.0000,  0.0000,  0.0000)
   6 Na     5.930080    0.000000   22.242266    ( 0.0000,  0.0000,  0.0000)
   7 Na     5.930080    3.423733   23.483030    ( 0.0000,  0.0000,  0.0000)
   8 Na     2.965040    1.711867   24.674059    ( 0.0000,  0.0000,  0.0000)
   9 Na     2.965040    5.135600   25.914822    ( 0.0000,  0.0000,  0.0000)
  10 Na     5.930080    3.423733   27.179803    ( 0.0000,  0.0000,  0.0000)
  11 Na     2.965040    1.711867   28.304834    ( 0.0000,  0.0000,  0.0000)
  12 Na     5.930080    0.000000   29.530573    ( 0.0000,  0.0000,  0.0000)
  13 Na     5.930080    3.423733   30.908862    ( 0.0000,  0.0000,  0.0000)
  14 Na     2.965040    1.711867   31.837671    ( 0.0000,  0.0000,  0.0000)
  15 Na     0.000000    0.000000   33.036981    ( 0.0000,  0.0000,  0.0000)

Unit cell:
           periodic     x           y           z      points  spacing
  1. axis:    yes    5.930080    0.000000    0.000000    32     0.1605
  2. axis:    yes    2.965040    5.135600    0.000000    32     0.1605
  3. axis:    no     0.000000    0.000000   48.157089   250     0.1926

  Lengths:   5.930080   5.930080  48.157089
  Angles:   90.000000  90.000000  60.000000

Effective grid spacing dv^(1/3) = 0.1789

     iter     time        total  log10-change:
                         energy   eigst   dens
iter:   1 19:27:09   -20.730535   -1.75
iter:   2 19:27:13   -20.434780   -2.84  -1.69
iter:   3 19:27:17   -20.292933   -3.37  -1.78
iter:   4 19:27:21   -20.222976   -3.44  -2.03
iter:   5 19:27:25   -20.220446   -3.88  -2.37
iter:   6 19:27:29   -20.218329c  -4.35  -2.58
iter:   7 19:27:33   -20.217452c  -4.52  -2.70
iter:   8 19:27:38   -20.216990c  -4.83  -3.02
iter:   9 19:27:42   -20.217002c  -5.33  -3.64
iter:  10 19:27:46   -20.217008c  -5.69  -3.68
iter:  11 19:27:50   -20.217011c  -5.98  -3.70
iter:  12 19:27:54   -20.217017c  -6.23  -4.04c
iter:  13 19:27:58   -20.217018c  -6.63  -4.45c
iter:  14 19:28:02   -20.217018c  -6.94  -4.47c
iter:  15 19:28:06   -20.217017c  -7.23  -4.45c
iter:  16 19:28:10   -20.217017c  -7.49c -4.56c

Converged after 16 iterations.

Dipole moment: (0.000000, -0.000000, -0.000000) |e|*Ang

Energy contributions relative to reference atoms: (reference = -70697.767962)

Kinetic:        +20.734116
Potential:      -18.133745
External:        +0.000000
XC:             -22.306900
Entropy (-ST):   -0.003026
Local:           -0.508974
SIC:             +0.000000
--------------------------
Free energy:    -20.218529
Extrapolated:   -20.217017

Showing only first 2 kpts
 Kpt  Band  Eigenvalues  Occupancy
  0    54     -1.07319    0.00000
  0    55     -0.26985    0.00000
  0    56     -0.03414    0.00000
  0    57     -0.02370    0.00000

  1    54     -1.11583    0.00000
  1    55     -0.31033    0.00000
  1    56      0.24467    0.00000
  1    57      0.40966    0.00000


Fermi level: -1.41472

No gap

Forces in eV/Ang:
  0 Na    0.00000    0.00000   -0.00174
  1 Na    0.00000   -0.00000    0.00311
  2 Na    0.00000   -0.00000    0.00382
  3 Na    0.00000    0.00000   -0.00142
  4 Na    0.00000    0.00000    0.00744
  5 Na   -0.00000   -0.00000   -0.00656
  6 Na    0.00000    0.00000    0.01214
  7 Na    0.00000    0.00000    0.01381
  8 Na    0.00000   -0.00000   -0.01381
  9 Na    0.00000   -0.00000   -0.01214
 10 Na    0.00000    0.00000    0.00656
 11 Na    0.00000   -0.00000   -0.00744
 12 Na   -0.00000   -0.00000    0.00142
 13 Na    0.00000    0.00000   -0.00382
 14 Na    0.00000    0.00000   -0.00311
 15 Na    0.00000   -0.00000    0.00174

System changes: positions 

Initializing position-dependent things.

Density initialized from wave functions
                                  
                                  
                                  
                                  
                                  
                                  
                                  
       Na                         
               Na       Na        
                                  
                                  
                     Na           
               Na       Na        
                  Na              
                                  
                                  
               Na                 
                        Na        
                                  
                                  
                     Na           
               Na       Na        
                                  
                                  
                                  
               Na    Na Na        
                                  
                                  
                                  
       Na                         
                                  
                                  
                                  
                                  

Positions:
   0 Na    -0.000000   -0.000000   15.120086    ( 0.0000,  0.0000,  0.0000)
   1 Na     5.930080    3.423733   16.320004    ( 0.0000,  0.0000,  0.0000)
   2 Na     2.965040    1.711867   17.247297    ( 0.0000,  0.0000,  0.0000)
   3 Na     5.930080    0.000000   18.628284    ( 0.0000,  0.0000,  0.0000)
   4 Na     5.930080    3.423733   19.853352    ( 0.0000,  0.0000,  0.0000)
   5 Na     2.965040    1.711867   20.975286    ( 0.0000,  0.0000,  0.0000)
   6 Na     5.930080    0.000000   22.241800    ( 0.0000,  0.0000,  0.0000)
   7 Na     5.930080    3.423733   23.483236    ( 0.0000,  0.0000,  0.0000)
   8 Na     2.965040    1.711867   24.673853    ( 0.0000,  0.0000,  0.0000)
   9 Na     2.965040    5.135600   25.915288    ( 0.0000,  0.0000,  0.0000)
  10 Na     5.930080    3.423733   27.181802    ( 0.0000,  0.0000,  0.0000)
  11 Na     2.965040    1.711867   28.303736    ( 0.0000,  0.0000,  0.0000)
  12 Na     5.930080    0.000000   29.528805    ( 0.0000,  0.0000,  0.0000)
  13 Na     5.930080    3.423733   30.909792    ( 0.0000,  0.0000,  0.0000)
  14 Na     2.965040    1.711867   31.837084    ( 0.0000,  0.0000,  0.0000)
  15 Na     0.000000    0.000000   33.037002    ( 0.0000,  0.0000,  0.0000)

Unit cell:
           periodic     x           y           z      points  spacing
  1. axis:    yes    5.930080    0.000000    0.000000    32     0.1605
  2. axis:    yes    2.965040    5.135600    0.000000    32     0.1605
  3. axis:    no     0.000000    0.000000   48.157089   250     0.1926

  Lengths:   5.930080   5.930080  48.157089
  Angles:   90.000000  90.000000  60.000000

Effective grid spacing dv^(1/3) = 0.1789

     iter     time        total  log10-change:
                         energy   eigst   dens
iter:   1 19:28:18   -20.217125   -5.52
iter:   2 19:28:23   -20.217047   -6.43  -3.45
iter:   3 19:28:27   -20.217039c  -6.95  -3.77
iter:   4 19:28:31   -20.217040c  -7.13  -3.88
iter:   5 19:28:35   -20.217035c  -7.54c -4.22c

Converged after 5 iterations.

Dipole moment: (0.000000, -0.000000, -0.000000) |e|*Ang

Energy contributions relative to reference atoms: (reference = -70697.767962)

Kinetic:        +20.714793
Potential:      -18.116672
External:        +0.000000
XC:             -22.304695
Entropy (-ST):   -0.003020
Local:           -0.508951
SIC:             +0.000000
--------------------------
Free energy:    -20.218545
Extrapolated:   -20.217035

Showing only first 2 kpts
 Kpt  Band  Eigenvalues  Occupancy
  0    54     -1.07305    0.00000
  0    55     -0.26952    0.00000
  0    56     -0.03421    0.00000
  0    57     -0.02370    0.00000

  1    54     -1.11569    0.00000
  1    55     -0.31000    0.00000
  1    56      0.24463    0.00000
  1    57      0.40961    0.00000


Fermi level: -1.41476

No gap

Forces in eV/Ang:
  0 Na    0.00000    0.00000   -0.00106
  1 Na    0.00000   -0.00000    0.00281
  2 Na    0.00000    0.00000    0.00469
  3 Na   -0.00000    0.00000   -0.00461
  4 Na   -0.00000    0.00000    0.00614
  5 Na   -0.00000   -0.00000   -0.00381
  6 Na    0.00000   -0.00000    0.01319
  7 Na    0.00000    0.00000    0.01411
  8 Na    0.00000   -0.00000   -0.01411
  9 Na    0.00000    0.00000   -0.01319
 10 Na    0.00000    0.00000    0.00381
 11 Na    0.00000   -0.00000   -0.00614
 12 Na   -0.00000    0.00000    0.00461
 13 Na    0.00000   -0.00000   -0.00469
 14 Na   -0.00000    0.00000   -0.00281
 15 Na    0.00000   -0.00000    0.00106

System changes: positions 

Initializing position-dependent things.

Density initialized from wave functions
                                  
                                  
                                  
                                  
                                  
                                  
                                  
       Na                         
               Na       Na        
                                  
                                  
                     Na           
               Na       Na        
                  Na              
                                  
                                  
               Na                 
                        Na        
                                  
                                  
                     Na           
               Na       Na        
                                  
                                  
                                  
               Na    Na Na        
                                  
                                  
                                  
       Na                         
                                  
                                  
                                  
                                  

Positions:
   0 Na    -0.000000   -0.000000   15.118884    ( 0.0000,  0.0000,  0.0000)
   1 Na     5.930080    3.423733   16.319222    ( 0.0000,  0.0000,  0.0000)
   2 Na     2.965040    1.711867   17.248789    ( 0.0000,  0.0000,  0.0000)
   3 Na     5.930080    0.000000   18.628690    ( 0.0000,  0.0000,  0.0000)
   4 Na     5.930080    3.423733   19.853704    ( 0.0000,  0.0000,  0.0000)
   5 Na     2.965040    1.711867   20.975326    ( 0.0000,  0.0000,  0.0000)
   6 Na     5.930080    0.000000   22.242277    ( 0.0000,  0.0000,  0.0000)
   7 Na     5.930080    3.423733   23.483627    ( 0.0000,  0.0000,  0.0000)
   8 Na     2.965040    1.711867   24.673461    ( 0.0000,  0.0000,  0.0000)
   9 Na     2.965040    5.135600   25.914812    ( 0.0000,  0.0000,  0.0000)
  10 Na     5.930080    3.423733   27.181763    ( 0.0000,  0.0000,  0.0000)
  11 Na     2.965040    1.711867   28.303385    ( 0.0000,  0.0000,  0.0000)
  12 Na     5.930080    0.000000   29.528399    ( 0.0000,  0.0000,  0.0000)
  13 Na     5.930080    3.423733   30.908300    ( 0.0000,  0.0000,  0.0000)
  14 Na     2.965040    1.711867   31.837867    ( 0.0000,  0.0000,  0.0000)
  15 Na     0.000000    0.000000   33.038205    ( 0.0000,  0.0000,  0.0000)

Unit cell:
           periodic     x           y           z      points  spacing
  1. axis:    yes    5.930080    0.000000    0.000000    32     0.1605
  2. axis:    yes    2.965040    5.135600    0.000000    32     0.1605
  3. axis:    no     0.000000    0.000000   48.157089   250     0.1926

  Lengths:   5.930080   5.930080  48.157089
  Angles:   90.000000  90.000000  60.000000

Effective grid spacing dv^(1/3) = 0.1789

     iter     time        total  log10-change:
                         energy   eigst   dens
iter:   1 19:28:43   -20.217979   -5.55
iter:   2 19:28:47   -20.217107   -6.16  -3.01
iter:   3 19:28:51   -20.217076c  -6.90  -3.74
iter:   4 19:28:55   -20.217065c  -7.30  -4.14c
iter:   5 19:29:00   -20.217064c  -7.74c -4.45c

Converged after 5 iterations.

Dipole moment: (0.000000, -0.000000, -0.000000) |e|*Ang

Energy contributions relative to reference atoms: (reference = -70697.767962)

Kinetic:        +20.708974
Potential:      -18.113864
External:        +0.000000
XC:             -22.302887
Entropy (-ST):   -0.003028
Local:           -0.507772
SIC:             +0.000000
--------------------------
Free energy:    -20.218579
Extrapolated:   -20.217064

Showing only first 2 kpts
 Kpt  Band  Eigenvalues  Occupancy
  0    54     -1.07353    0.00000
  0    55     -0.27022    0.00000
  0    56     -0.03442    0.00000
  0    57     -0.02395    0.00000

  1    54     -1.11617    0.00000
  1    55     -0.31070    0.00000
  1    56      0.24440    0.00000
  1    57      0.40938    0.00000


Fermi level: -1.41477

No gap

Forces in eV/Ang:
  0 Na    0.00000    0.00000   -0.00088
  1 Na    0.00000   -0.00000    0.00399
  2 Na    0.00000    0.00000    0.00335
  3 Na    0.00000    0.00000   -0.00399
  4 Na    0.00000    0.00000    0.00520
  5 Na    0.00000   -0.00000   -0.00558
  6 Na    0.00000   -0.00000    0.01220
  7 Na    0.00000    0.00000    0.01380
  8 Na   -0.00000   -0.00000   -0.01380
  9 Na    0.00000    0.00000   -0.01220
 10 Na    0.00000    0.00000    0.00558
 11 Na    0.00000   -0.00000   -0.00520
 12 Na    0.00000   -0.00000    0.00399
 13 Na    0.00000   -0.00000   -0.00335
 14 Na    0.00000    0.00000   -0.00399
 15 Na   -0.00000   -0.00000    0.00088

System changes: positions 

Initializing position-dependent things.

Density initialized from wave functions
                                  
                                  
                                  
                                  
                                  
                                  
                                  
       Na                         
               Na       Na        
                                  
                                  
                     Na           
               Na       Na        
                  Na              
                                  
                                  
               Na                 
                        Na        
                                  
                                  
                     Na           
               Na       Na        
                                  
                                  
                                  
               Na    Na Na        
                                  
                                  
                                  
       Na                         
                                  
                                  
                                  
                                  

Positions:
   0 Na     0.000000   -0.000000   15.110887    ( 0.0000,  0.0000,  0.0000)
   1 Na     5.930080    3.423733   16.315512    ( 0.0000,  0.0000,  0.0000)
   2 Na     2.965040    1.711867   17.256976    ( 0.0000,  0.0000,  0.0000)
   3 Na     5.930080    0.000000   18.634750    ( 0.0000,  0.0000,  0.0000)
   4 Na     5.930080    3.423733   19.858582    ( 0.0000,  0.0000,  0.0000)
   5 Na     2.965040    1.711867   20.971189    ( 0.0000,  0.0000,  0.0000)
   6 Na     5.930080    0.000000   22.245014    ( 0.0000,  0.0000,  0.0000)
   7 Na     5.930080    3.423733   23.487306    ( 0.0000,  0.0000,  0.0000)
   8 Na     2.965040    1.711867   24.669782    ( 0.0000,  0.0000,  0.0000)
   9 Na     2.965040    5.135600   25.912075    ( 0.0000,  0.0000,  0.0000)
  10 Na     5.930080    3.423733   27.185900    ( 0.0000,  0.0000,  0.0000)
  11 Na     2.965040    1.711867   28.298506    ( 0.0000,  0.0000,  0.0000)
  12 Na     5.930080    0.000000   29.522339    ( 0.0000,  0.0000,  0.0000)
  13 Na     5.930080    3.423733   30.900113    ( 0.0000,  0.0000,  0.0000)
  14 Na     2.965040    1.711867   31.841577    ( 0.0000,  0.0000,  0.0000)
  15 Na     0.000000    0.000000   33.046202    ( 0.0000,  0.0000,  0.0000)

Unit cell:
           periodic     x           y           z      points  spacing
  1. axis:    yes    5.930080    0.000000    0.000000    32     0.1605
  2. axis:    yes    2.965040    5.135600    0.000000    32     0.1605
  3. axis:    no     0.000000    0.000000   48.157089   250     0.1926

  Lengths:   5.930080   5.930080  48.157089
  Angles:   90.000000  90.000000  60.000000

Effective grid spacing dv^(1/3) = 0.1789

     iter     time        total  log10-change:
                         energy   eigst   dens
iter:   1 19:29:08   -20.266210   -3.68
iter:   2 19:29:12   -20.219672   -4.32  -2.13
iter:   3 19:29:16   -20.217323c  -5.18  -2.85
iter:   4 19:29:20   -20.217178c  -5.58  -3.28
iter:   5 19:29:24   -20.217135c  -5.97  -3.51
iter:   6 19:29:28   -20.217117c  -6.50  -3.64
iter:   7 19:29:32   -20.217115c  -6.88  -3.92
iter:   8 19:29:37   -20.217114c  -7.01  -4.14c
iter:   9 19:29:41   -20.217115c  -7.54c -4.63c

Converged after 9 iterations.

Dipole moment: (0.000000, -0.000000, -0.000000) |e|*Ang

Energy contributions relative to reference atoms: (reference = -70697.767962)

Kinetic:        +20.615328
Potential:      -18.040894
External:        +0.000000
XC:             -22.281421
Entropy (-ST):   -0.003082
Local:           -0.508587
SIC:             +0.000000
--------------------------
Free energy:    -20.218656
Extrapolated:   -20.217115

Showing only first 2 kpts
 Kpt  Band  Eigenvalues  Occupancy
  0    54     -1.07460    0.00000
  0    55     -0.27257    0.00000
  0    56     -0.03320    0.00000
  0    57     -0.02281    0.00000

  1    54     -1.11725    0.00000
  1    55     -0.31306    0.00000
  1    56      0.24557    0.00000
  1    57      0.41043    0.00000


Fermi level: -1.41248

No gap

Forces in eV/Ang:
  0 Na   -0.00000   -0.00000    0.00643
  1 Na    0.00000   -0.00000    0.00648
  2 Na    0.00000   -0.00000   -0.00118
  3 Na    0.00000    0.00000   -0.01031
  4 Na   -0.00000    0.00000    0.00411
  5 Na   -0.00000   -0.00000   -0.00001
  6 Na    0.00000    0.00000    0.01085
  7 Na   -0.00000    0.00000    0.01252
  8 Na   -0.00000   -0.00000   -0.01252
  9 Na    0.00000   -0.00000   -0.01085
 10 Na   -0.00000    0.00000    0.00001
 11 Na    0.00000   -0.00000   -0.00411
 12 Na    0.00000   -0.00000    0.01031
 13 Na    0.00000    0.00000    0.00118
 14 Na    0.00000    0.00000   -0.00648
 15 Na   -0.00000   -0.00000   -0.00643

System changes: positions 

Initializing position-dependent things.

Density initialized from wave functions
                                  
                                  
                                  
                                  
                                  
                                  
                                  
       Na                         
               Na       Na        
                                  
                                  
                     Na           
               Na       Na        
                  Na              
                                  
                                  
               Na                 
                        Na        
                                  
                                  
                     Na           
               Na       Na        
                                  
                                  
                                  
               Na    Na Na        
                                  
                                  
                                  
       Na                         
                                  
                                  
                                  
                                  

Positions:
   0 Na    -0.000000   -0.000000   15.113249    ( 0.0000,  0.0000,  0.0000)
   1 Na     5.930080    3.423733   16.316785    ( 0.0000,  0.0000,  0.0000)
   2 Na     2.965040    1.711867   17.254969    ( 0.0000,  0.0000,  0.0000)
   3 Na     5.930080    0.000000   18.632515    ( 0.0000,  0.0000,  0.0000)
   4 Na     5.930080    3.423733   19.857483    ( 0.0000,  0.0000,  0.0000)
   5 Na     2.965040    1.711867   20.972327    ( 0.0000,  0.0000,  0.0000)
   6 Na     5.930080    0.000000   22.244914    ( 0.0000,  0.0000,  0.0000)
   7 Na     5.930080    3.423733   23.486989    ( 0.0000,  0.0000,  0.0000)
   8 Na     2.965040    1.711867   24.670100    ( 0.0000,  0.0000,  0.0000)
   9 Na     2.965040    5.135600   25.912175    ( 0.0000,  0.0000,  0.0000)
  10 Na     5.930080    3.423733   27.184761    ( 0.0000,  0.0000,  0.0000)
  11 Na     2.965040    1.711867   28.299606    ( 0.0000,  0.0000,  0.0000)
  12 Na     5.930080    0.000000   29.524574    ( 0.0000,  0.0000,  0.0000)
  13 Na     5.930080    3.423733   30.902120    ( 0.0000,  0.0000,  0.0000)
  14 Na     2.965040    1.711867   31.840303    ( 0.0000,  0.0000,  0.0000)
  15 Na     0.000000    0.000000   33.043840    ( 0.0000,  0.0000,  0.0000)

Unit cell:
           periodic     x           y           z      points  spacing
  1. axis:    yes    5.930080    0.000000    0.000000    32     0.1605
  2. axis:    yes    2.965040    5.135600    0.000000    32     0.1605
  3. axis:    no     0.000000    0.000000   48.157089   250     0.1926

  Lengths:   5.930080   5.930080  48.157089
  Angles:   90.000000  90.000000  60.000000

Effective grid spacing dv^(1/3) = 0.1789

     iter     time        total  log10-change:
                         energy   eigst   dens
iter:   1 19:29:49   -20.220148   -4.82
iter:   2 19:29:53   -20.217309   -5.51  -2.74
iter:   3 19:29:57   -20.217214c  -6.24  -3.50
iter:   4 19:30:01   -20.217186c  -6.40  -3.68
iter:   5 19:30:05   -20.217186c  -7.09  -4.44c
iter:   6 19:30:09   -20.217187c  -7.49c -4.47c

Converged after 6 iterations.

Dipole moment: (0.000000, -0.000000, -0.000000) |e|*Ang

Energy contributions relative to reference atoms: (reference = -70697.767962)

Kinetic:        +20.671759
Potential:      -18.086584
External:        +0.000000
XC:             -22.290702
Entropy (-ST):   -0.003067
Local:           -0.510127
SIC:             +0.000000
--------------------------
Free energy:    -20.218721
Extrapolated:   -20.217187

Showing only first 2 kpts
 Kpt  Band  Eigenvalues  Occupancy
  0    54     -1.07403    0.00000
  0    55     -0.27173    0.00000
  0    56     -0.03336    0.00000
  0    57     -0.02297    0.00000

  1    54     -1.11668    0.00000
  1    55     -0.31222    0.00000
  1    56      0.24541    0.00000
  1    57      0.41039    0.00000


Fermi level: -1.41288

No gap

Forces in eV/Ang:
  0 Na   -0.00000    0.00000    0.00409
  1 Na    0.00000    0.00000    0.00607
  2 Na    0.00000    0.00000    0.00039
  3 Na    0.00000    0.00000   -0.00869
  4 Na    0.00000   -0.00000    0.00427
  5 Na   -0.00000    0.00000   -0.00106
  6 Na    0.00000   -0.00000    0.01159
  7 Na   -0.00000    0.00000    0.01328
  8 Na   -0.00000   -0.00000   -0.01328
  9 Na    0.00000    0.00000   -0.01159
 10 Na    0.00000    0.00000    0.00106
 11 Na   -0.00000    0.00000   -0.00427
 12 Na    0.00000   -0.00000    0.00869
 13 Na    0.00000   -0.00000   -0.00039
 14 Na    0.00000    0.00000   -0.00607
 15 Na    0.00000   -0.00000   -0.00409

System changes: positions 

Initializing position-dependent things.

Density initialized from wave functions
                                  
                                  
                                  
                                  
                                  
                                  
                                  
       Na                         
               Na       Na        
                                  
                                  
                     Na           
               Na       Na        
                  Na              
                                  
                                  
               Na                 
                        Na        
                                  
                                  
                     Na           
               Na       Na        
                                  
                                  
                                  
               Na    Na Na        
                                  
                                  
                                  
       Na                         
                                  
                                  
                                  
                                  

Positions:
   0 Na    -0.000000   -0.000000   15.117672    ( 0.0000,  0.0000,  0.0000)
   1 Na     5.930080    3.423733   16.319558    ( 0.0000,  0.0000,  0.0000)
   2 Na     2.965040    1.711867   17.252553    ( 0.0000,  0.0000,  0.0000)
   3 Na     5.930080    0.000000   18.626701    ( 0.0000,  0.0000,  0.0000)
   4 Na     5.930080    3.423733   19.856120    ( 0.0000,  0.0000,  0.0000)
   5 Na     2.965040    1.711867   20.974676    ( 0.0000,  0.0000,  0.0000)
   6 Na     5.930080    0.000000   22.246801    ( 0.0000,  0.0000,  0.0000)
   7 Na     5.930080    3.423733   23.488497    ( 0.0000,  0.0000,  0.0000)
   8 Na     2.965040    1.711867   24.668591    ( 0.0000,  0.0000,  0.0000)
   9 Na     2.965040    5.135600   25.910288    ( 0.0000,  0.0000,  0.0000)
  10 Na     5.930080    3.423733   27.182413    ( 0.0000,  0.0000,  0.0000)
  11 Na     2.965040    1.711867   28.300968    ( 0.0000,  0.0000,  0.0000)
  12 Na     5.930080    0.000000   29.530387    ( 0.0000,  0.0000,  0.0000)
  13 Na     5.930080    3.423733   30.904536    ( 0.0000,  0.0000,  0.0000)
  14 Na     2.965040    1.711867   31.837530    ( 0.0000,  0.0000,  0.0000)
  15 Na     0.000000    0.000000   33.039416    ( 0.0000,  0.0000,  0.0000)

Unit cell:
           periodic     x           y           z      points  spacing
  1. axis:    yes    5.930080    0.000000    0.000000    32     0.1605
  2. axis:    yes    2.965040    5.135600    0.000000    32     0.1605
  3. axis:    no     0.000000    0.000000   48.157089   250     0.1926

  Lengths:   5.930080   5.930080  48.157089
  Angles:   90.000000  90.000000  60.000000

Effective grid spacing dv^(1/3) = 0.1789

     iter     time        total  log10-change:
                         energy   eigst   dens
iter:   1 19:30:18   -20.223822   -4.26
iter:   2 19:30:22   -20.217835   -5.06  -2.57
iter:   3 19:30:26   -20.217564c  -5.76  -3.17
iter:   4 19:30:30   -20.217349c  -5.82  -3.27
iter:   5 19:30:34   -20.217337c  -6.43  -3.72
iter:   6 19:30:38   -20.217339c  -6.92  -4.07c
iter:   7 19:30:42   -20.217337c  -7.22  -4.18c
iter:   8 19:30:46   -20.217338c  -7.69c -4.84c

Converged after 8 iterations.

Dipole moment: (0.000000, -0.000000, -0.000000) |e|*Ang

Energy contributions relative to reference atoms: (reference = -70697.767962)

Kinetic:        +20.729061
Potential:      -18.131074
External:        +0.000000
XC:             -22.304519
Entropy (-ST):   -0.003053
Local:           -0.509278
SIC:             +0.000000
--------------------------
Free energy:    -20.218865
Extrapolated:   -20.217338

Showing only first 2 kpts
 Kpt  Band  Eigenvalues  Occupancy
  0    54     -1.07292    0.00000
  0    55     -0.27044    0.00000
  0    56     -0.03383    0.00000
  0    57     -0.02351    0.00000

  1    54     -1.11556    0.00000
  1    55     -0.31092    0.00000
  1    56      0.24492    0.00000
  1    57      0.40989    0.00000


Fermi level: -1.41337

No gap

Forces in eV/Ang:
  0 Na    0.00000    0.00000   -0.00028
  1 Na    0.00000    0.00000    0.00446
  2 Na    0.00000   -0.00000    0.00170
  3 Na    0.00000    0.00000   -0.00225
  4 Na    0.00000    0.00000    0.00540
  5 Na    0.00000   -0.00000   -0.00367
  6 Na    0.00000    0.00000    0.00855
  7 Na    0.00000    0.00000    0.01176
  8 Na    0.00000   -0.00000   -0.01176
  9 Na    0.00000   -0.00000   -0.00855
 10 Na    0.00000    0.00000    0.00367
 11 Na    0.00000    0.00000   -0.00540
 12 Na   -0.00000   -0.00000    0.00225
 13 Na    0.00000    0.00000   -0.00170
 14 Na    0.00000    0.00000   -0.00446
 15 Na    0.00000   -0.00000    0.00028

System changes: positions 

Initializing position-dependent things.

Density initialized from wave functions
                                  
                                  
                                  
                                  
                                  
                                  
                                  
       Na                         
               Na       Na        
                                  
                                  
                     Na           
               Na       Na        
                  Na              
                                  
                                  
               Na                 
                        Na        
                                  
                                  
                     Na           
               Na       Na        
                                  
                                  
                                  
               Na    Na Na        
                                  
                                  
                                  
       Na                         
                                  
                                  
                                  
                                  

Positions:
   0 Na    -0.000000   -0.000000   15.118995    ( 0.0000,  0.0000,  0.0000)
   1 Na     5.930080    3.423733   16.321237    ( 0.0000,  0.0000,  0.0000)
   2 Na     2.965040    1.711867   17.253017    ( 0.0000,  0.0000,  0.0000)
   3 Na     5.930080    0.000000   18.623918    ( 0.0000,  0.0000,  0.0000)
   4 Na     5.930080    3.423733   19.857331    ( 0.0000,  0.0000,  0.0000)
   5 Na     2.965040    1.711867   20.974469    ( 0.0000,  0.0000,  0.0000)
   6 Na     5.930080    0.000000   22.249778    ( 0.0000,  0.0000,  0.0000)
   7 Na     5.930080    3.423733   23.491829    ( 0.0000,  0.0000,  0.0000)
   8 Na     2.965040    1.711867   24.665259    ( 0.0000,  0.0000,  0.0000)
   9 Na     2.965040    5.135600   25.907311    ( 0.0000,  0.0000,  0.0000)
  10 Na     5.930080    3.423733   27.182620    ( 0.0000,  0.0000,  0.0000)
  11 Na     2.965040    1.711867   28.299757    ( 0.0000,  0.0000,  0.0000)
  12 Na     5.930080    0.000000   29.533171    ( 0.0000,  0.0000,  0.0000)
  13 Na     5.930080    3.423733   30.904071    ( 0.0000,  0.0000,  0.0000)
  14 Na     2.965040    1.711867   31.835851    ( 0.0000,  0.0000,  0.0000)
  15 Na     0.000000    0.000000   33.038093    ( 0.0000,  0.0000,  0.0000)

Unit cell:
           periodic     x           y           z      points  spacing
  1. axis:    yes    5.930080    0.000000    0.000000    32     0.1605
  2. axis:    yes    2.965040    5.135600    0.000000    32     0.1605
  3. axis:    no     0.000000    0.000000   48.157089   250     0.1926

  Lengths:   5.930080   5.930080  48.157089
  Angles:   90.000000  90.000000  60.000000

Effective grid spacing dv^(1/3) = 0.1789

     iter     time        total  log10-change:
                         energy   eigst   dens
iter:   1 19:30:55   -20.217887   -4.89
iter:   2 19:30:59   -20.217640   -5.97  -3.26
iter:   3 19:31:03   -20.217567c  -6.55  -3.39
iter:   4 19:31:07   -20.217476c  -6.48  -3.51
iter:   5 19:31:11   -20.217470c  -6.86  -3.82
iter:   6 19:31:15   -20.217471c  -7.56c -4.33c

Converged after 6 iterations.

Dipole moment: (0.000000, -0.000000, -0.000000) |e|*Ang

Energy contributions relative to reference atoms: (reference = -70697.767962)

Kinetic:        +20.714233
Potential:      -18.114452
External:        +0.000000
XC:             -22.304456
Entropy (-ST):   -0.003056
Local:           -0.511268
SIC:             +0.000000
--------------------------
Free energy:    -20.218998
Extrapolated:   -20.217471

Showing only first 2 kpts
 Kpt  Band  Eigenvalues  Occupancy
  0    54     -1.07233    0.00000
  0    55     -0.27016    0.00000
  0    56     -0.03418    0.00000
  0    57     -0.02392    0.00000

  1    54     -1.11498    0.00000
  1    55     -0.31065    0.00000
  1    56      0.24453    0.00000
  1    57      0.40949    0.00000


Fermi level: -1.41327

No gap

Forces in eV/Ang:
  0 Na    0.00000    0.00000   -0.00248
  1 Na   -0.00000   -0.00000    0.00367
  2 Na   -0.00000    0.00000    0.00141
  3 Na    0.00000    0.00000    0.00277
  4 Na    0.00000    0.00000    0.00478
  5 Na   -0.00000   -0.00000   -0.00385
  6 Na    0.00000    0.00000    0.00436
  7 Na    0.00000    0.00000    0.00822
  8 Na   -0.00000   -0.00000   -0.00822
  9 Na    0.00000   -0.00000   -0.00436
 10 Na   -0.00000    0.00000    0.00385
 11 Na   -0.00000   -0.00000   -0.00478
 12 Na   -0.00000   -0.00000   -0.00277
 13 Na    0.00000   -0.00000   -0.00141
 14 Na    0.00000    0.00000   -0.00367
 15 Na   -0.00000    0.00000    0.00248

Timing:                                      incl.     excl.
-------------------------------------------------------------------
Density initialized from wave functions:     4.815     4.375   0.5% |
 Symmetrize density:                         0.440     0.440   0.0% |
Forces:                                     34.610    34.610   3.6% ||
Hamiltonian:                                 8.250     0.025   0.0% |
 Atomic:                                     0.401     0.401   0.0% |
  XC Correction:                             0.000     0.000   0.0% |
 Calculate atomic Hamiltonians:              3.340     3.340   0.3% |
 Communicate:                                0.001     0.001   0.0% |
 Initialize Hamiltonian:                     0.000     0.000   0.0% |
 Poisson:                                    0.040     0.040   0.0% |
 XC 3D grid:                                 4.443     4.443   0.5% |
LCAO initialization:                         2.182     0.007   0.0% |
 LCAO eigensolver:                           0.371     0.000   0.0% |
  Calculate projections:                     0.001     0.001   0.0% |
  DenseAtomicCorrection:                     0.005     0.005   0.0% |
  Distribute overlap matrix:                 0.000     0.000   0.0% |
  Orbital Layouts:                           0.022     0.022   0.0% |
  Potential matrix:                          0.341     0.341   0.0% |
  Sum over cells:                            0.001     0.001   0.0% |
 LCAO to grid:                               1.678     1.678   0.2% |
 Set positions (LCAO WFS):                   0.125     0.023   0.0% |
  Basic WFS set positions:                   0.002     0.002   0.0% |
  Basis functions set positions:             0.000     0.000   0.0% |
  P tci:                                     0.061     0.061   0.0% |
  ST tci:                                    0.030     0.030   0.0% |
  mktci:                                     0.008     0.008   0.0% |
PWDescriptor:                                0.273     0.273   0.0% |
Redistribute:                                0.013     0.013   0.0% |
SCF-cycle:                                 493.895     5.767   0.6% |
 Davidson:                                 369.071   130.519  13.5% |----|
  Apply H:                                  27.712    26.754   2.8% ||
   HMM T:                                    0.958     0.958   0.1% |
  Subspace diag:                            38.145     0.074   0.0% |
   calc_h_matrix:                           23.720     9.986   1.0% |
    Apply H:                                13.734    13.265   1.4% ||
     HMM T:                                  0.469     0.469   0.0% |
   diagonalize:                              1.307     1.307   0.1% |
   rotate_psi:                              13.045    13.045   1.4% ||
  calc. matrices:                          117.298    90.238   9.4% |---|
   Apply H:                                 27.060    26.123   2.7% ||
    HMM T:                                   0.936     0.936   0.1% |
  diagonalize:                               9.033     9.033   0.9% |
  rotate_psi:                               46.364    46.364   4.8% |-|
 Density:                                   44.198     0.002   0.0% |
  Atomic density matrices:                   0.309     0.309   0.0% |
  Mix:                                      33.307    33.307   3.5% ||
  Multipole moments:                         0.016     0.016   0.0% |
  Pseudo density:                           10.563     6.491   0.7% |
   Symmetrize density:                       4.072     4.072   0.4% |
 Hamiltonian:                               69.749     0.214   0.0% |
  Atomic:                                    3.200     3.200   0.3% |
   XC Correction:                            0.000     0.000   0.0% |
  Calculate atomic Hamiltonians:            27.901    27.901   2.9% ||
  Communicate:                               0.007     0.007   0.0% |
  Poisson:                                   0.352     0.352   0.0% |
  XC 3D grid:                               38.075    38.075   4.0% |-|
 Orthonormalize:                             5.110     0.007   0.0% |
  calc_s_matrix:                             0.895     0.895   0.1% |
  inverse-cholesky:                          0.085     0.085   0.0% |
  projections:                               2.807     2.807   0.3% |
  rotate_psi_s:                              1.315     1.315   0.1% |
Set symmetry:                                0.002     0.002   0.0% |
Other:                                     419.806   419.806  43.6% |----------------|
-------------------------------------------------------------------
Total:                                               963.846 100.0%

Memory usage: 1.23 GiB
Date: Wed Feb 26 19:38:00 2025
