
  ___ ___ ___ _ _ _  
 |   |   |_  | | | | 
 | | | | | . | | | | 
 |__ |  _|___|_____|  24.1.0
 |___|_|             

User:   husi@vera-r04-07
Date:   Wed Feb 26 19:12:07 2025
Arch:   x86_64
Pid:    1475527
CWD:    /cephyr/users/husi/Vera/A3
Python: 3.11.3
gpaw:   /apps/Arch/software/GPAW/24.1.0-foss-2023a/lib/python3.11/site-packages/gpaw
_gpaw:  /apps/Arch/software/GPAW/24.1.0-foss-2023a/lib/python3.11/site-packages/
        _gpaw.cpython-311-x86_64-linux-gnu.so
ase:    /apps/Arch/software/ASE/3.22.1-gfbf-2023a/lib/python3.11/site-packages/ase (version 3.22.1)
numpy:  /apps/Arch/software/SciPy-bundle/2023.07-gfbf-2023a/lib/python3.11/site-packages/numpy (version 1.25.1)
scipy:  /apps/Arch/software/SciPy-bundle/2023.07-gfbf-2023a/lib/python3.11/site-packages/scipy (version 1.11.1)
libxc:  6.2.2
units:  Angstrom and eV
cores: 32
OpenMP: False
OMP_NUM_THREADS: 1

Input parameters:
  kpts: [8 8 1]
  mode: {ecut: 500.0,
         name: pw}
  occupations: {fixmagmom: False,
                name: fermi-dirac,
                width: 0.01}
  xc: PBE

System changes: positions, numbers, cell, pbc, initial_charges, initial_magmoms 

Initialize ...

species:
  Na:
    name: Sodium
    id: d7ecbc49209718622bcbe287195dca2a
    Z: 11.0
    valence: 7
    core: 4
    charge: 0.0
    file: /apps/Common/software/GPAW-setups/24.1.0/Na.PBE.gz
    compensation charges: {type: gauss,
                           rc: 0.37,
                           lmax: 2}
    cutoffs: {filter: 2.17,
              core: 2.59}
    valence states:
      #              energy  rcut
      - 3s(1.00)    -2.744   1.201
      - 2p(6.00)   -28.672   1.217
      - 3p(0.00)    -0.743   1.217
      -  s          24.468   1.201
      -  d           0.000   1.238
  
    # Using partial waves for Na as LCAO basis

Reference energy: -70697.767962  # eV

Spin-paired calculation

Convergence criteria:
 Maximum [total energy] change in last 3 cyles: 0.0005 eV / valence electron
 Maximum integral of absolute [dens]ity change: 0.0001 electrons / valence electron
 Maximum integral of absolute [eigenst]ate change: 4e-08 eV^2 / valence electron
 Maximum number of scf [iter]ations: 333
 (Square brackets indicate name in SCF output, whereas a 'c' in
 the SCF output indicates the quantity has converged.)

Symmetries present (total): 2

  ( 1  0  0)  (-1  0  0)
  ( 0  1  0)  ( 0  1  0)
  ( 0  0  1)  ( 0  0  1)

64 k-points: 8 x 8 x 1 Monkhorst-Pack grid
16 k-points in the irreducible part of the Brillouin zone
       k-points in crystal coordinates                weights
   0:     0.06250000    0.06250000    0.00000000          4/64
   1:     0.06250000    0.18750000    0.00000000          4/64
   2:     0.06250000    0.31250000    0.00000000          4/64
   3:     0.06250000    0.43750000    0.00000000          4/64
   4:     0.18750000    0.06250000    0.00000000          4/64
   5:     0.18750000    0.18750000    0.00000000          4/64
   6:     0.18750000    0.31250000    0.00000000          4/64
   7:     0.18750000    0.43750000    0.00000000          4/64
   8:     0.31250000    0.06250000    0.00000000          4/64
   9:     0.31250000    0.18750000    0.00000000          4/64
          ...
  15:     0.43750000    0.43750000    0.00000000          4/64

Wave functions: Plane wave expansion
  Cutoff energy: 500.000 eV
  Number of coefficients (min, max): 30329, 30529
  Pulay-stress correction: 0.000000 eV/Ang^3 (de/decut=0.000000)
  Using FFTW library
  ScaLapack parameters: grid=1x1, blocksize=None
  Wavefunction extrapolation:
    Improved wavefunction reuse through dual PAW basis 

Occupation numbers: Fermi-Dirac:
  width: 0.0100  # eV
 

Eigensolver
   Davidson(niter=2) 

Densities:
  Coarse grid: 32*20*288 grid
  Fine grid: 64*40*576 grid
  Total Charge: 0.000000 

Density mixing:
  Method: separate
  Backend: pulay
  Linear mixing parameter: 0.05
  old densities: 5
  Damping of long wavelength oscillations: 50 

Hamiltonian:
  XC and Coulomb potentials evaluated on a 64*40*576 grid
  Using the PBE Exchange-Correlation functional
  External potential:
    NoExternalPotential
 

XC parameters: PBE with 2 nearest neighbor stencil

Memory estimate:
  Process memory now: 1125.82 MiB
  Calculator: 138.14 MiB
    Density: 82.81 MiB
      Arrays: 36.56 MiB
      Localized functions: 32.18 MiB
      Mixer: 14.06 MiB
    Hamiltonian: 24.56 MiB
      Arrays: 23.91 MiB
      XC: 0.00 MiB
      Poisson: 0.00 MiB
      vbar: 0.66 MiB
    Wavefunctions: 30.76 MiB
      Arrays psit_nG: 16.77 MiB
      Eigensolver: 3.12 MiB
      Projections: 0.11 MiB
      Projectors: 3.26 MiB
      PW-descriptor: 7.50 MiB

Total number of cores used: 32
Parallelization over k-points: 16
Parallelization over states: 2

Number of atoms: 16
Number of atomic orbitals: 112
Number of bands in calculation: 72
Number of valence electrons: 112
Bands to converge: occupied

... initialized

Initializing position-dependent things.

Density initialized from atomic densities
Creating initial wave functions:
  72 bands from LCAO basis set

   .--------------.  
  /|              |  
 * |              |  
 | |              |  
 | |              |  
 | |              |  
 | |              |  
 | |              |  
 | |              |  
 | |              |  
 | |              |  
 | |              |  
 | |              |  
 | |              |  
 | |              |  
 | |              |  
 | |              |  
 | |              |  
 | |              |  
 | |              |  
 | |     Na       |  
 |Na              |  
 | |              |  
 | |              |  
 | |     Na       |  
 | |              |  
 | |              |  
 Na|      Na      |  
 | |              |  
 | |              |  
 |Na              |  
 | |       Na     |  
 | |              |  
 | |              |  
 |Na              |  
 | |              |  
 | |     Na       |  
 | |              |  
 | |              |  
 Na|              |  
 | |      Na      |  
 | |              |  
 | |              |  
 |Na              |  
 | |              |  
 | |     Na       |  
 |Na              |  
 | |              |  
 | |              |  
 | |     Na       |  
 | |              |  
 | |              |  
 Na|              |  
 | |              |  
 | |              |  
 | |              |  
 | |              |  
 | |              |  
 | |              |  
 | |              |  
 | |              |  
 | |              |  
 | |              |  
 | |              |  
 | |              |  
 | |              |  
 | |              |  
 | |              |  
 | .--------------.  
 |/              /   
 *--------------*    

Positions:
   0 Na     0.000000    0.000000   15.000000    ( 0.0000,  0.0000,  0.0000)
   1 Na     2.965040    1.210473   16.711867    ( 0.0000,  0.0000,  0.0000)
   2 Na     0.000000    2.420945   18.423733    ( 0.0000,  0.0000,  0.0000)
   3 Na     2.965040    0.000000   20.135600    ( 0.0000,  0.0000,  0.0000)
   4 Na     0.000000    1.210473   21.847467    ( 0.0000,  0.0000,  0.0000)
   5 Na     2.965040    2.420945   23.559334    ( 0.0000,  0.0000,  0.0000)
   6 Na     0.000000    0.000000   25.271200    ( 0.0000,  0.0000,  0.0000)
   7 Na     2.965040    1.210473   26.983067    ( 0.0000,  0.0000,  0.0000)
   8 Na     0.000000    2.420945   28.694934    ( 0.0000,  0.0000,  0.0000)
   9 Na     2.965040    3.631418   30.406801    ( 0.0000,  0.0000,  0.0000)
  10 Na     0.000000    1.210473   32.118667    ( 0.0000,  0.0000,  0.0000)
  11 Na     2.965040    2.420945   33.830534    ( 0.0000,  0.0000,  0.0000)
  12 Na     0.000000    0.000000   35.542401    ( 0.0000,  0.0000,  0.0000)
  13 Na     2.965040    1.210473   37.254268    ( 0.0000,  0.0000,  0.0000)
  14 Na     0.000000    2.420945   38.966134    ( 0.0000,  0.0000,  0.0000)
  15 Na     2.965040    0.000000   40.678001    ( 0.0000,  0.0000,  0.0000)

Unit cell:
           periodic     x           y           z      points  spacing
  1. axis:    yes    5.930080    0.000000    0.000000    32     0.1853
  2. axis:    yes    0.000000    3.631418    0.000000    20     0.1816
  3. axis:    no     0.000000    0.000000   55.678001   288     0.1933

  Lengths:   5.930080   3.631418  55.678001
  Angles:   90.000000  90.000000  90.000000

Effective grid spacing dv^(1/3) = 0.1867

     iter     time        total  log10-change:
                         energy   eigst   dens
iter:   1 19:12:14   -20.685838
iter:   2 19:12:16   -20.700732   -1.40  -1.59
iter:   3 19:12:17   -20.631495   -2.11  -1.64
iter:   4 19:12:19   -20.560321   -2.56  -1.66
iter:   5 19:12:21   -20.558558   -2.68  -1.78
iter:   6 19:12:23   -20.548886c  -3.01  -1.96
iter:   7 19:12:25   -20.541477c  -3.35  -2.19
iter:   8 19:12:26   -20.536364c  -3.98  -2.47
iter:   9 19:12:28   -20.534510c  -4.37  -2.56
iter:  10 19:12:30   -20.528237c  -4.53  -2.59
iter:  11 19:12:32   -20.525695c  -4.73  -2.78
iter:  12 19:12:33   -20.524746c  -5.14  -2.95
iter:  13 19:12:35   -20.524621c  -5.50  -3.11
iter:  14 19:12:37   -20.526821c  -5.96  -3.11
iter:  15 19:12:39   -20.524200c  -5.20  -2.74
iter:  16 19:12:41   -20.524182c  -5.76  -3.69
iter:  17 19:12:43   -20.524174c  -6.40  -3.88
iter:  18 19:12:44   -20.524183c  -6.88  -3.87
iter:  19 19:12:46   -20.524175c  -7.04  -3.94
iter:  20 19:12:48   -20.524184c  -7.65c -4.01c

Converged after 20 iterations.

Dipole moment: (-0.000000, -0.000000, 0.000939) |e|*Ang

Energy contributions relative to reference atoms: (reference = -70697.767962)

Kinetic:        +20.783149
Potential:      -18.180530
External:        +0.000000
XC:             -22.612820
Entropy (-ST):   -0.003767
Local:           -0.512101
SIC:             +0.000000
--------------------------
Free energy:    -20.526068
Extrapolated:   -20.524184

Showing only first 2 kpts
 Kpt  Band  Eigenvalues  Occupancy
  0    54     -2.32855    2.00000
  0    55     -1.75662    2.00000
  0    56     -1.15394    0.16186
  0    57     -0.65628    0.00000

  1    54     -1.97392    2.00000
  1    55     -1.40562    2.00000
  1    56     -0.80711    0.00000
  1    57     -0.31990    0.00000


Fermi level: -1.17824

No gap

Forces in eV/Ang:
  0 Na    0.00000   -0.03523    0.06442
  1 Na    0.00000    0.03649   -0.02580
  2 Na    0.00000   -0.00099   -0.02582
  3 Na    0.00000    0.00007   -0.00713
  4 Na    0.00000   -0.00049    0.00538
  5 Na    0.00000    0.00026    0.00701
  6 Na    0.00000   -0.00024   -0.00740
  7 Na    0.00000    0.00017   -0.00560
  8 Na    0.00000   -0.00017    0.00360
  9 Na    0.00000    0.00023    0.00525
 10 Na    0.00000   -0.00026   -0.00841
 11 Na    0.00000    0.00049   -0.00612
 12 Na    0.00000   -0.00007    0.00708
 13 Na    0.00000    0.00100    0.02590
 14 Na    0.00000   -0.03656    0.02614
 15 Na    0.00000    0.03531   -0.06408

System changes: positions 

Initializing position-dependent things.

Density initialized from wave functions
   .--------------.  
  /|              |  
 * |              |  
 | |              |  
 | |              |  
 | |              |  
 | |              |  
 | |              |  
 | |              |  
 | |              |  
 | |              |  
 | |              |  
 | |              |  
 | |              |  
 | |              |  
 | |              |  
 | |              |  
 | |              |  
 | |              |  
 | |              |  
 | |     Na       |  
 |Na              |  
 | |              |  
 | |              |  
 | |     Na       |  
 | Na             |  
 | |              |  
 | |      Na      |  
 | |              |  
 | |              |  
 |Na              |  
 | |              |  
 | |              |  
 | |     Na       |  
 |Na              |  
 | |              |  
 | |     Na       |  
 | Na             |  
 | |              |  
 | |              |  
 | |      Na      |  
 | |              |  
 | |              |  
 |Na              |  
 | |              |  
 | |     Na       |  
 |Na              |  
 | |              |  
 | |              |  
 | |     Na       |  
 | Na             |  
 | |              |  
 | |              |  
 | |              |  
 | |              |  
 | |              |  
 | |              |  
 | |              |  
 | |              |  
 | |              |  
 | |              |  
 | |              |  
 | |              |  
 | |              |  
 | |              |  
 | |              |  
 | |              |  
 | |              |  
 | .--------------.  
 |/              /   
 *--------------*    

Positions:
   0 Na     0.000000   -0.000503   15.000920    ( 0.0000,  0.0000,  0.0000)
   1 Na     2.965040    1.210994   16.711498    ( 0.0000,  0.0000,  0.0000)
   2 Na     0.000000    2.420931   18.423365    ( 0.0000,  0.0000,  0.0000)
   3 Na     2.965040    0.000001   20.135498    ( 0.0000,  0.0000,  0.0000)
   4 Na     0.000000    1.210466   21.847544    ( 0.0000,  0.0000,  0.0000)
   5 Na     2.965040    2.420949   23.559434    ( 0.0000,  0.0000,  0.0000)
   6 Na     0.000000   -0.000003   25.271095    ( 0.0000,  0.0000,  0.0000)
   7 Na     2.965040    1.210475   26.982987    ( 0.0000,  0.0000,  0.0000)
   8 Na     0.000000    2.420943   28.694985    ( 0.0000,  0.0000,  0.0000)
   9 Na     2.965040    3.631421   30.406876    ( 0.0000,  0.0000,  0.0000)
  10 Na     0.000000    1.210469   32.118547    ( 0.0000,  0.0000,  0.0000)
  11 Na     2.965040    2.420952   33.830447    ( 0.0000,  0.0000,  0.0000)
  12 Na     0.000000   -0.000001   35.542502    ( 0.0000,  0.0000,  0.0000)
  13 Na     2.965040    1.210487   37.254637    ( 0.0000,  0.0000,  0.0000)
  14 Na     0.000000    2.420423   38.966508    ( 0.0000,  0.0000,  0.0000)
  15 Na     2.965040    0.000504   40.677086    ( 0.0000,  0.0000,  0.0000)

Unit cell:
           periodic     x           y           z      points  spacing
  1. axis:    yes    5.930080    0.000000    0.000000    32     0.1853
  2. axis:    yes    0.000000    3.631418    0.000000    20     0.1816
  3. axis:    no     0.000000    0.000000   55.678001   288     0.1933

  Lengths:   5.930080   3.631418  55.678001
  Angles:   90.000000  90.000000  90.000000

Effective grid spacing dv^(1/3) = 0.1867

     iter     time        total  log10-change:
                         energy   eigst   dens
iter:   1 19:12:52   -20.690603   -4.98
iter:   2 19:12:54   -23.724193   -3.58  -1.90
iter:   3 19:12:56   -20.532211   -4.04  -1.24
iter:   4 19:12:57   -20.524967   -5.02  -2.58
iter:   5 19:12:59   -20.524433c  -5.62  -3.15
iter:   6 19:13:01   -20.524463c  -6.13  -3.80
iter:   7 19:13:03   -20.524403c  -6.56  -3.73
iter:   8 19:13:05   -20.524410c  -6.94  -4.11c
iter:   9 19:13:06   -20.524405c  -7.28  -4.13c
iter:  10 19:13:08   -20.524405c  -7.60c -4.37c

Converged after 10 iterations.

Dipole moment: (-0.000000, -0.000001, -0.000243) |e|*Ang

Energy contributions relative to reference atoms: (reference = -70697.767962)

Kinetic:        +21.125634
Potential:      -18.469361
External:        +0.000000
XC:             -22.669032
Entropy (-ST):   -0.003763
Local:           -0.509765
SIC:             +0.000000
--------------------------
Free energy:    -20.526286
Extrapolated:   -20.524405

Showing only first 2 kpts
 Kpt  Band  Eigenvalues  Occupancy
  0    54     -2.32812    2.00000
  0    55     -1.75606    2.00000
  0    56     -1.15329    0.15613
  0    57     -0.65589    0.00000

  1    54     -1.97350    2.00000
  1    55     -1.40507    2.00000
  1    56     -0.80646    0.00000
  1    57     -0.31950    0.00000


Fermi level: -1.17798

No gap

Forces in eV/Ang:
  0 Na    0.00000   -0.03477    0.05856
  1 Na    0.00000    0.03590   -0.02609
  2 Na    0.00000   -0.00105   -0.02666
  3 Na    0.00000    0.00003   -0.00555
  4 Na    0.00000   -0.00038    0.00537
  5 Na    0.00000    0.00027    0.00769
  6 Na    0.00000   -0.00022   -0.00605
  7 Na    0.00000    0.00014   -0.00415
  8 Na    0.00000   -0.00013    0.00343
  9 Na    0.00000    0.00016    0.00551
 10 Na    0.00000   -0.00027   -0.00771
 11 Na    0.00000    0.00049   -0.00597
 12 Na    0.00000    0.00009    0.00578
 13 Na    0.00000    0.00106    0.02653
 14 Na    0.00000   -0.03614    0.02702
 15 Na    0.00000    0.03476   -0.05807

System changes: positions 

Initializing position-dependent things.

Density initialized from wave functions
   .--------------.  
  /|              |  
 * |              |  
 | |              |  
 | |              |  
 | |              |  
 | |              |  
 | |              |  
 | |              |  
 | |              |  
 | |              |  
 | |              |  
 | |              |  
 | |              |  
 | |              |  
 | |              |  
 | |              |  
 | |              |  
 | |              |  
 | |              |  
 | |     Na       |  
 |Na              |  
 | |              |  
 | |              |  
 | |     Na       |  
 | |              |  
 | |              |  
 Na|      Na      |  
 | |              |  
 | |              |  
 |Na              |  
 | |              |  
 | |              |  
 | |     Na       |  
 |Na              |  
 | |              |  
 | |     Na       |  
 | Na             |  
 | |              |  
 | |              |  
 | |      Na      |  
 | |              |  
 | |              |  
 |Na              |  
 | |              |  
 | |     Na       |  
 |Na              |  
 | |              |  
 | |              |  
 | |     Na       |  
 | Na             |  
 | |              |  
 | |              |  
 | |              |  
 | |              |  
 | |              |  
 | |              |  
 | |              |  
 | |              |  
 | |              |  
 | |              |  
 | |              |  
 | |              |  
 | |              |  
 | |              |  
 | |              |  
 | |              |  
 | |              |  
 | .--------------.  
 |/              /   
 *--------------*    

Positions:
   0 Na     0.000000   -0.011223   15.019054    ( 0.0000,  0.0000,  0.0000)
   1 Na     2.965040    1.222064   16.703465    ( 0.0000,  0.0000,  0.0000)
   2 Na    -0.000000    2.420609   18.415165    ( 0.0000,  0.0000,  0.0000)
   3 Na     2.965040    0.000009   20.133762    ( 0.0000,  0.0000,  0.0000)
   4 Na    -0.000000    1.210346   21.849198    ( 0.0000,  0.0000,  0.0000)
   5 Na     2.965040    2.421030   23.561791    ( 0.0000,  0.0000,  0.0000)
   6 Na     0.000000   -0.000073   25.269211    ( 0.0000,  0.0000,  0.0000)
   7 Na     2.965040    1.210518   26.981687    ( 0.0000,  0.0000,  0.0000)
   8 Na     0.000000    2.420901   28.696043    ( 0.0000,  0.0000,  0.0000)
   9 Na     2.965040    3.631471   30.408569    ( 0.0000,  0.0000,  0.0000)
  10 Na     0.000000    1.210387   32.116161    ( 0.0000,  0.0000,  0.0000)
  11 Na     2.965040    2.421104   33.828604    ( 0.0000,  0.0000,  0.0000)
  12 Na    -0.000000    0.000025   35.544302    ( 0.0000,  0.0000,  0.0000)
  13 Na     2.965040    1.210814   37.262801    ( 0.0000,  0.0000,  0.0000)
  14 Na     0.000000    2.409284   38.974819    ( 0.0000,  0.0000,  0.0000)
  15 Na     2.965040    0.011222   40.659102    ( 0.0000,  0.0000,  0.0000)

Unit cell:
           periodic     x           y           z      points  spacing
  1. axis:    yes    5.930080    0.000000    0.000000    32     0.1853
  2. axis:    yes    0.000000    3.631418    0.000000    20     0.1816
  3. axis:    no     0.000000    0.000000   55.678001   288     0.1933

  Lengths:   5.930080   3.631418  55.678001
  Angles:   90.000000  90.000000  90.000000

Effective grid spacing dv^(1/3) = 0.1867

     iter     time        total  log10-change:
                         energy   eigst   dens
iter:   1 19:13:12   -20.673958   -3.55
iter:   2 19:13:14   -20.764194   -3.91  -1.92
iter:   3 19:13:16   -20.556207   -4.57  -1.81
iter:   4 19:13:18   -20.541967   -5.24  -2.28
iter:   5 19:13:19   -20.529290c  -5.65  -2.44
iter:   6 19:13:21   -20.529048c  -6.21  -3.08
iter:   7 19:13:23   -20.528818c  -5.86  -3.21
iter:   8 19:13:25   -20.528802c  -6.52  -3.57
iter:   9 19:13:27   -20.528797c  -6.96  -3.70
iter:  10 19:13:28   -20.528875c  -7.31  -3.75
iter:  11 19:13:30   -20.528801c  -7.03  -3.51
iter:  12 19:13:32   -20.528799c  -7.42c -4.00c

Converged after 12 iterations.

Dipole moment: (-0.000000, -0.000132, 0.000202) |e|*Ang

Energy contributions relative to reference atoms: (reference = -70697.767962)

Kinetic:        +21.200084
Potential:      -18.520553
External:        +0.000000
XC:             -22.693204
Entropy (-ST):   -0.003608
Local:           -0.513323
SIC:             +0.000000
--------------------------
Free energy:    -20.530603
Extrapolated:   -20.528799

Showing only first 2 kpts
 Kpt  Band  Eigenvalues  Occupancy
  0    54     -2.32557    2.00000
  0    55     -1.75177    2.00000
  0    56     -1.14808    0.09202
  0    57     -0.65474    0.00000

  1    54     -1.97098    2.00000
  1    55     -1.40086    2.00000
  1    56     -0.80135    0.00000
  1    57     -0.31837    0.00000


Fermi level: -1.17840

No gap

Forces in eV/Ang:
  0 Na    0.00000   -0.03160    0.05063
  1 Na    0.00000    0.03362   -0.02088
  2 Na    0.00000   -0.00328   -0.01518
  3 Na    0.00000    0.00022   -0.00930
  4 Na    0.00000    0.00056    0.00234
  5 Na    0.00000    0.00044    0.00711
  6 Na    0.00000   -0.00037   -0.00339
  7 Na    0.00000   -0.00029   -0.00371
  8 Na    0.00000    0.00027    0.00305
  9 Na    0.00000    0.00038    0.00322
 10 Na    0.00000   -0.00045   -0.00682
 11 Na    0.00000   -0.00055   -0.00180
 12 Na    0.00000   -0.00027    0.00947
 13 Na    0.00000    0.00331    0.01514
 14 Na    0.00000   -0.03361    0.02022
 15 Na    0.00000    0.03165   -0.05116

System changes: positions 

Initializing position-dependent things.

Density initialized from wave functions
   .--------------.  
  /|              |  
 * |              |  
 | |              |  
 | |              |  
 | |              |  
 | |              |  
 | |              |  
 | |              |  
 | |              |  
 | |              |  
 | |              |  
 | |              |  
 | |              |  
 | |              |  
 | |              |  
 | |              |  
 | |              |  
 | |              |  
 | |              |  
 | |     Na       |  
 |Na              |  
 | |              |  
 | |              |  
 | |     Na       |  
 | |              |  
 | |              |  
 Na|      Na      |  
 | |              |  
 | |              |  
 |Na              |  
 | |              |  
 | |              |  
 | |     Na       |  
 |Na              |  
 | |              |  
 | |     Na       |  
 | Na             |  
 | |              |  
 | |              |  
 | |      Na      |  
 | |              |  
 | |              |  
 |Na              |  
 | |              |  
 | |     Na       |  
 |Na              |  
 | |              |  
 | |              |  
 | |     Na       |  
 | Na             |  
 | |              |  
 | |              |  
 | |              |  
 | |              |  
 | |              |  
 | |              |  
 | |              |  
 | |              |  
 | |              |  
 | |              |  
 | |              |  
 | |              |  
 | |              |  
 | |              |  
 | |              |  
 | |              |  
 | |              |  
 | .--------------.  
 |/              /   
 *--------------*    

Positions:
   0 Na     0.000000   -0.073349   15.123875    ( 0.0000,  0.0000,  0.0000)
   1 Na     2.965040    1.286315   16.657179    ( 0.0000,  0.0000,  0.0000)
   2 Na    -0.000000    2.418517   18.368508    ( 0.0000,  0.0000,  0.0000)
   3 Na     2.965040    0.000077   20.123299    ( 0.0000,  0.0000,  0.0000)
   4 Na    -0.000000    1.209743   21.858541    ( 0.0000,  0.0000,  0.0000)
   5 Na     2.965040    2.421522   23.575468    ( 0.0000,  0.0000,  0.0000)
   6 Na     0.000000   -0.000492   25.258501    ( 0.0000,  0.0000,  0.0000)
   7 Na     2.965040    1.210727   26.974166    ( 0.0000,  0.0000,  0.0000)
   8 Na     0.000000    2.420695   28.702168    ( 0.0000,  0.0000,  0.0000)
   9 Na     2.965040    3.631786   30.418210    ( 0.0000,  0.0000,  0.0000)
  10 Na     0.000000    1.209891   32.102356    ( 0.0000,  0.0000,  0.0000)
  11 Na     2.965040    2.421886   33.818274    ( 0.0000,  0.0000,  0.0000)
  12 Na    -0.000000    0.000141   35.555135    ( 0.0000,  0.0000,  0.0000)
  13 Na     2.965040    1.212934   37.309254    ( 0.0000,  0.0000,  0.0000)
  14 Na     0.000000    2.344651   39.022576    ( 0.0000,  0.0000,  0.0000)
  15 Na     2.965040    0.073342   40.555056    ( 0.0000,  0.0000,  0.0000)

Unit cell:
           periodic     x           y           z      points  spacing
  1. axis:    yes    5.930080    0.000000    0.000000    32     0.1853
  2. axis:    yes    0.000000    3.631418    0.000000    20     0.1816
  3. axis:    no     0.000000    0.000000   55.678001   288     0.1933

  Lengths:   5.930080   3.631418  55.678001
  Angles:   90.000000  90.000000  90.000000

Effective grid spacing dv^(1/3) = 0.1867

     iter     time        total  log10-change:
                         energy   eigst   dens
iter:   1 19:13:36   -24.858880   -2.11
iter:   2 19:13:38   -26.576834   -1.91  -1.20
iter:   3 19:13:40   -20.769050   -2.55  -1.11
iter:   4 19:13:41   -20.760617   -3.71  -1.87
iter:   5 19:13:43   -20.666118   -4.10  -1.91
iter:   6 19:13:45   -20.550984   -4.21  -1.98
iter:   7 19:13:47   -20.543636   -4.98  -2.41
iter:   8 19:13:49   -20.539845c  -4.63  -2.57
iter:   9 19:13:50   -20.539361c  -5.28  -2.86
iter:  10 19:13:52   -20.539667c  -5.57  -2.96
iter:  11 19:13:54   -20.539647c  -5.79  -2.96
iter:  12 19:13:56   -20.540131c  -5.77  -3.05
iter:  13 19:13:57   -20.539450c  -5.67  -3.01
iter:  14 19:13:59   -20.539433c  -6.26  -3.57
iter:  15 19:14:01   -20.539426c  -6.63  -3.61
iter:  16 19:14:03   -20.539426c  -6.84  -3.69
iter:  17 19:14:05   -20.539448c  -6.96  -3.74
iter:  18 19:14:06   -20.539433c  -7.61c -3.71
iter:  19 19:14:08   -20.539418c  -7.68c -3.88
iter:  20 19:14:10   -20.539421c  -7.92c -4.15c

Converged after 20 iterations.

Dipole moment: (-0.000000, -0.000826, -0.000098) |e|*Ang

Energy contributions relative to reference atoms: (reference = -70697.767962)

Kinetic:        +21.739934
Potential:      -18.911433
External:        +0.000000
XC:             -22.855026
Entropy (-ST):   -0.002858
Local:           -0.511466
SIC:             +0.000000
--------------------------
Free energy:    -20.540850
Extrapolated:   -20.539421

Showing only first 2 kpts
 Kpt  Band  Eigenvalues  Occupancy
  0    54     -2.32442    2.00000
  0    55     -1.74060    2.00000
  0    56     -1.13084    0.00226
  0    57     -0.66598    0.00000

  1    54     -1.97006    2.00000
  1    55     -1.39011    2.00000
  1    56     -0.78465    0.00000
  1    57     -0.32967    0.00000


Fermi level: -1.19870

No gap

Forces in eV/Ang:
  0 Na    0.00000   -0.01513   -0.01756
  1 Na    0.00000    0.02472   -0.00366
  2 Na    0.00000   -0.01600    0.05656
  3 Na    0.00000    0.00164   -0.01617
  4 Na    0.00000    0.00442   -0.01523
  5 Na    0.00000    0.00143   -0.00900
  6 Na    0.00000   -0.00089    0.00623
  7 Na    0.00000   -0.00223    0.00642
  8 Na    0.00000    0.00211   -0.00554
  9 Na    0.00000    0.00099   -0.00599
 10 Na    0.00000   -0.00150    0.00842
 11 Na    0.00000   -0.00432    0.01554
 12 Na    0.00000   -0.00187    0.01613
 13 Na    0.00000    0.01610   -0.05582
 14 Na    0.00000   -0.02472    0.00312
 15 Na    0.00000    0.01526    0.01707

System changes: positions 

Initializing position-dependent things.

Density initialized from wave functions
   .--------------.  
  /|              |  
 * |              |  
 | |              |  
 | |              |  
 | |              |  
 | |              |  
 | |              |  
 | |              |  
 | |              |  
 | |              |  
 | |              |  
 | |              |  
 | |              |  
 | |              |  
 | |              |  
 | |              |  
 | |              |  
 | |              |  
 | |              |  
 | |     Na       |  
 |Na              |  
 | |              |  
 | |              |  
 | |     Na       |  
 | |              |  
 | |              |  
 Na|      Na      |  
 | |              |  
 | |              |  
 |Na              |  
 | |              |  
 | |              |  
 | |     Na       |  
 |Na              |  
 | |              |  
 | |     Na       |  
 | Na             |  
 | |              |  
 | |              |  
 | |      Na      |  
 | |              |  
 | |              |  
 |Na              |  
 | |              |  
 | |     Na       |  
 |Na              |  
 | |              |  
 | |              |  
 | |     Na       |  
 | Na             |  
 | |              |  
 | |              |  
 | |              |  
 | |              |  
 | |              |  
 | |              |  
 | |              |  
 | |              |  
 | |              |  
 | |              |  
 | |              |  
 | |              |  
 | |              |  
 | |              |  
 | |              |  
 | |              |  
 | |              |  
 | .--------------.  
 |/              /   
 *--------------*    

Positions:
   0 Na     0.000000   -0.064984   15.109225    ( 0.0000,  0.0000,  0.0000)
   1 Na     2.965040    1.277776   16.663508    ( 0.0000,  0.0000,  0.0000)
   2 Na     0.000000    2.418605   18.375636    ( 0.0000,  0.0000,  0.0000)
   3 Na     2.965040    0.000088   20.124536    ( 0.0000,  0.0000,  0.0000)
   4 Na    -0.000000    1.209882   21.857065    ( 0.0000,  0.0000,  0.0000)
   5 Na     2.965040    2.421472   23.573476    ( 0.0000,  0.0000,  0.0000)
   6 Na     0.000000   -0.000445   25.260056    ( 0.0000,  0.0000,  0.0000)
   7 Na     2.965040    1.210671   26.975281    ( 0.0000,  0.0000,  0.0000)
   8 Na     0.000000    2.420750   28.701257    ( 0.0000,  0.0000,  0.0000)
   9 Na     2.965040    3.631755   30.416807    ( 0.0000,  0.0000,  0.0000)
  10 Na     0.000000    1.209941   32.104360    ( 0.0000,  0.0000,  0.0000)
  11 Na     2.965040    2.421724   33.819892    ( 0.0000,  0.0000,  0.0000)
  12 Na    -0.000000    0.000102   35.553847    ( 0.0000,  0.0000,  0.0000)
  13 Na     2.965040    1.212843   37.302163    ( 0.0000,  0.0000,  0.0000)
  14 Na     0.000000    2.353242   39.016035    ( 0.0000,  0.0000,  0.0000)
  15 Na     2.965040    0.064979   40.569592    ( 0.0000,  0.0000,  0.0000)

Unit cell:
           periodic     x           y           z      points  spacing
  1. axis:    yes    5.930080    0.000000    0.000000    32     0.1853
  2. axis:    yes    0.000000    3.631418    0.000000    20     0.1816
  3. axis:    no     0.000000    0.000000   55.678001   288     0.1933

  Lengths:   5.930080   3.631418  55.678001
  Angles:   90.000000  90.000000  90.000000

Effective grid spacing dv^(1/3) = 0.1867

     iter     time        total  log10-change:
                         energy   eigst   dens
iter:   1 19:14:14   -20.614175   -3.72
iter:   2 19:14:16   -20.686273   -4.15  -2.05
iter:   3 19:14:18   -20.573627   -4.82  -1.96
iter:   4 19:14:19   -20.542760   -5.46  -2.22
iter:   5 19:14:21   -20.540518c  -5.78  -2.79
iter:   6 19:14:23   -20.540314c  -6.08  -3.06
iter:   7 19:14:25   -20.539889c  -6.10  -3.08
iter:   8 19:14:26   -20.539735c  -6.54  -3.39
iter:   9 19:14:28   -20.539736c  -7.07  -3.78
iter:  10 19:14:30   -20.539753c  -7.32  -3.80
iter:  11 19:14:32   -20.539733c  -7.29  -3.71
iter:  12 19:14:34   -20.539734c  -7.67c -4.04c

Converged after 12 iterations.

Dipole moment: (-0.000000, -0.000719, 0.000077) |e|*Ang

Energy contributions relative to reference atoms: (reference = -70697.767962)

Kinetic:        +21.584918
Potential:      -18.792714
External:        +0.000000
XC:             -22.825349
Entropy (-ST):   -0.002958
Local:           -0.505111
SIC:             +0.000000
--------------------------
Free energy:    -20.541213
Extrapolated:   -20.539734

Showing only first 2 kpts
 Kpt  Band  Eigenvalues  Occupancy
  0    54     -2.32548    2.00000
  0    55     -1.74292    2.00000
  0    56     -1.13394    0.00373
  0    57     -0.66528    0.00000

  1    54     -1.97110    2.00000
  1    55     -1.39237    2.00000
  1    56     -0.78768    0.00000
  1    57     -0.32896    0.00000


Fermi level: -1.19676

No gap

Forces in eV/Ang:
  0 Na    0.00000   -0.02036   -0.00856
  1 Na    0.00000    0.02835   -0.00772
  2 Na    0.00000   -0.01263    0.04502
  3 Na    0.00000    0.00174   -0.01502
  4 Na    0.00000    0.00345   -0.01209
  5 Na    0.00000    0.00123   -0.00730
  6 Na    0.00000   -0.00074    0.00333
  7 Na    0.00000   -0.00177    0.00395
  8 Na    0.00000    0.00167   -0.00399
  9 Na    0.00000    0.00082   -0.00358
 10 Na    0.00000   -0.00128    0.00698
 11 Na    0.00000   -0.00337    0.01280
 12 Na    0.00000   -0.00193    0.01513
 13 Na    0.00000    0.01273   -0.04458
 14 Na    0.00000   -0.02838    0.00683
 15 Na    0.00000    0.02048    0.00797

System changes: positions 

Initializing position-dependent things.

Density initialized from wave functions
   .--------------.  
  /|              |  
 * |              |  
 | |              |  
 | |              |  
 | |              |  
 | |              |  
 | |              |  
 | |              |  
 | |              |  
 | |              |  
 | |              |  
 | |              |  
 | |              |  
 | |              |  
 | |              |  
 | |              |  
 | |              |  
 | |              |  
 | |              |  
 | |     Na       |  
 |Na              |  
 | |              |  
 | |              |  
 | |     Na       |  
 | |              |  
 | |              |  
 Na|      Na      |  
 | |              |  
 | |              |  
 |Na              |  
 | |              |  
 | |              |  
 | |     Na       |  
 |Na              |  
 | |              |  
 | |     Na       |  
 | Na             |  
 | |              |  
 | |              |  
 | |      Na      |  
 | |              |  
 | |              |  
 |Na              |  
 | |              |  
 | |     Na       |  
 |Na              |  
 | |              |  
 | |              |  
 | |     Na       |  
 | Na             |  
 | |              |  
 | |              |  
 | |              |  
 | |              |  
 | |              |  
 | |              |  
 | |              |  
 | |              |  
 | |              |  
 | |              |  
 | |              |  
 | |              |  
 | |              |  
 | |              |  
 | |              |  
 | |              |  
 | |              |  
 | .--------------.  
 |/              /   
 *--------------*    

Positions:
   0 Na     0.000000   -0.065527   15.109389    ( 0.0000,  0.0000,  0.0000)
   1 Na     2.965040    1.278470   16.663233    ( 0.0000,  0.0000,  0.0000)
   2 Na    -0.000000    2.418367   18.376303    ( 0.0000,  0.0000,  0.0000)
   3 Na     2.965040    0.000119   20.124237    ( 0.0000,  0.0000,  0.0000)
   4 Na    -0.000000    1.209943   21.856875    ( 0.0000,  0.0000,  0.0000)
   5 Na     2.965040    2.421496   23.573388    ( 0.0000,  0.0000,  0.0000)
   6 Na     0.000000   -0.000460   25.260088    ( 0.0000,  0.0000,  0.0000)
   7 Na     2.965040    1.210639   26.975334    ( 0.0000,  0.0000,  0.0000)
   8 Na     0.000000    2.420780   28.701203    ( 0.0000,  0.0000,  0.0000)
   9 Na     2.965040    3.631771   30.416770    ( 0.0000,  0.0000,  0.0000)
  10 Na     0.000000    1.209916   32.104441    ( 0.0000,  0.0000,  0.0000)
  11 Na     2.965040    2.421665   33.820089    ( 0.0000,  0.0000,  0.0000)
  12 Na    -0.000000    0.000069   35.554148    ( 0.0000,  0.0000,  0.0000)
  13 Na     2.965040    1.213083   37.301504    ( 0.0000,  0.0000,  0.0000)
  14 Na     0.000000    2.352546   39.016302    ( 0.0000,  0.0000,  0.0000)
  15 Na     2.965040    0.065524   40.569421    ( 0.0000,  0.0000,  0.0000)

Unit cell:
           periodic     x           y           z      points  spacing
  1. axis:    yes    5.930080    0.000000    0.000000    32     0.1853
  2. axis:    yes    0.000000    3.631418    0.000000    20     0.1816
  3. axis:    no     0.000000    0.000000   55.678001   288     0.1933

  Lengths:   5.930080   3.631418  55.678001
  Angles:   90.000000  90.000000  90.000000

Effective grid spacing dv^(1/3) = 0.1867

     iter     time        total  log10-change:
                         energy   eigst   dens
iter:   1 19:14:38   -20.541346   -5.92
iter:   2 19:14:40   -20.563993   -5.74  -2.92
iter:   3 19:14:41   -20.540679c  -6.15  -2.28
iter:   4 19:14:43   -20.539888c  -6.98  -3.07
iter:   5 19:14:45   -20.539869c  -7.34  -3.82
iter:   6 19:14:47   -20.539869c  -7.79c -4.23c

Converged after 6 iterations.

Dipole moment: (-0.000000, -0.000730, -0.000043) |e|*Ang

Energy contributions relative to reference atoms: (reference = -70697.767962)

Kinetic:        +21.610622
Potential:      -18.813106
External:        +0.000000
XC:             -22.826545
Entropy (-ST):   -0.002971
Local:           -0.509355
SIC:             +0.000000
--------------------------
Free energy:    -20.541354
Extrapolated:   -20.539869

Showing only first 2 kpts
 Kpt  Band  Eigenvalues  Occupancy
  0    54     -2.32527    2.00000
  0    55     -1.74258    2.00000
  0    56     -1.13363    0.00374
  0    57     -0.66504    0.00000

  1    54     -1.97088    2.00000
  1    55     -1.39203    2.00000
  1    56     -0.78737    0.00000
  1    57     -0.32872    0.00000


Fermi level: -1.19642

No gap

Forces in eV/Ang:
  0 Na    0.00000   -0.01821   -0.00829
  1 Na    0.00000    0.02612   -0.00592
  2 Na    0.00000   -0.01339    0.04473
  3 Na    0.00000    0.00176   -0.01614
  4 Na    0.00000    0.00353   -0.01307
  5 Na    0.00000    0.00125   -0.00564
  6 Na    0.00000   -0.00074    0.00520
  7 Na    0.00000   -0.00184    0.00422
  8 Na    0.00000    0.00173   -0.00359
  9 Na    0.00000    0.00082   -0.00513
 10 Na    0.00000   -0.00131    0.00541
 11 Na    0.00000   -0.00345    0.01361
 12 Na    0.00000   -0.00195    0.01595
 13 Na    0.00000    0.01350   -0.04456
 14 Na    0.00000   -0.02613    0.00516
 15 Na    0.00000    0.01831    0.00789

System changes: positions 

Initializing position-dependent things.

Density initialized from wave functions
   .--------------.  
  /|              |  
 * |              |  
 | |              |  
 | |              |  
 | |              |  
 | |              |  
 | |              |  
 | |              |  
 | |              |  
 | |              |  
 | |              |  
 | |              |  
 | |              |  
 | |              |  
 | |              |  
 | |              |  
 | |              |  
 | |              |  
 | |              |  
 | |     Na       |  
 |Na              |  
 | |              |  
 | |              |  
 | |     Na       |  
 | Na             |  
 | |              |  
 | |      Na      |  
 | |              |  
 | |              |  
 |Na              |  
 | |              |  
 | |              |  
 | |     Na       |  
 |Na              |  
 | |              |  
 | |     Na       |  
 | Na             |  
 | |              |  
 | |              |  
 | |      Na      |  
 | |              |  
 | |              |  
 |Na              |  
 | |              |  
 | |     Na       |  
 |Na              |  
 | |              |  
 | |              |  
 | |     Na       |  
 | Na             |  
 | |              |  
 | |              |  
 | |              |  
 | |              |  
 | |              |  
 | |              |  
 | |              |  
 | |              |  
 | |              |  
 | |              |  
 | |              |  
 | |              |  
 | |              |  
 | |              |  
 | |              |  
 | |              |  
 | |              |  
 | .--------------.  
 |/              /   
 *--------------*    

Positions:
   0 Na     0.000000   -0.082065   15.070827    ( 0.0000,  0.0000,  0.0000)
   1 Na     2.965040    1.307517   16.662677    ( 0.0000,  0.0000,  0.0000)
   2 Na    -0.000000    2.397765   18.460037    ( 0.0000,  0.0000,  0.0000)
   3 Na     2.965040    0.002826   20.102251    ( 0.0000,  0.0000,  0.0000)
   4 Na     0.000000    1.215787   21.834650    ( 0.0000,  0.0000,  0.0000)
   5 Na     2.965040    2.423385   23.559137    ( 0.0000,  0.0000,  0.0000)
   6 Na    -0.000000   -0.001576   25.269141    ( 0.0000,  0.0000,  0.0000)
   7 Na     2.965040    1.207668   26.984014    ( 0.0000,  0.0000,  0.0000)
   8 Na     0.000000    2.423595   28.693326    ( 0.0000,  0.0000,  0.0000)
   9 Na     2.965040    3.633035   30.407879    ( 0.0000,  0.0000,  0.0000)
  10 Na     0.000000    1.207939   32.118238    ( 0.0000,  0.0000,  0.0000)
  11 Na     2.965040    2.415922   33.843453    ( 0.0000,  0.0000,  0.0000)
  12 Na    -0.000000   -0.002980   35.576086    ( 0.0000,  0.0000,  0.0000)
  13 Na     2.965040    1.233844   37.218478    ( 0.0000,  0.0000,  0.0000)
  14 Na     0.000000    2.323535   39.015355    ( 0.0000,  0.0000,  0.0000)
  15 Na     2.965040    0.082244   40.607010    ( 0.0000,  0.0000,  0.0000)

Unit cell:
           periodic     x           y           z      points  spacing
  1. axis:    yes    5.930080    0.000000    0.000000    32     0.1853
  2. axis:    yes    0.000000    3.631418    0.000000    20     0.1816
  3. axis:    no     0.000000    0.000000   55.678001   288     0.1933

  Lengths:   5.930080   3.631418  55.678001
  Angles:   90.000000  90.000000  90.000000

Effective grid spacing dv^(1/3) = 0.1867

     iter     time        total  log10-change:
                         energy   eigst   dens
iter:   1 19:14:51   -22.009230   -2.15
iter:   2 19:14:53   -22.971597   -2.64  -1.40
iter:   3 19:14:54   -20.596874   -3.45  -1.30
iter:   4 19:14:56   -20.854118   -3.97  -2.11
iter:   5 19:14:58   -20.576317   -4.46  -1.77
iter:   6 19:15:00   -20.550255   -4.13  -2.21
iter:   7 19:15:02   -20.545991c  -4.63  -2.56
iter:   8 19:15:03   -20.541869c  -5.07  -2.64
iter:   9 19:15:05   -20.541824c  -5.59  -3.00
iter:  10 19:15:07   -20.544339c  -5.77  -3.04
iter:  11 19:15:09   -20.541670c  -5.70  -2.74
iter:  12 19:15:10   -20.541631c  -6.10  -3.34
iter:  13 19:15:12   -20.541611c  -6.31  -3.43
iter:  14 19:15:14   -20.541610c  -6.67  -3.62
iter:  15 19:15:16   -20.541627c  -7.02  -3.72
iter:  16 19:15:18   -20.541626c  -7.26  -3.80
iter:  17 19:15:19   -20.541635c  -7.61c -3.90
iter:  18 19:15:21   -20.541628c  -7.81c -3.83
iter:  19 19:15:23   -20.541622c  -8.05c -3.98
iter:  20 19:15:25   -20.541621c  -8.42c -4.06c

Converged after 20 iterations.

Dipole moment: (-0.000000, -0.000527, 0.000055) |e|*Ang

Energy contributions relative to reference atoms: (reference = -70697.767962)

Kinetic:        +21.288172
Potential:      -18.580780
External:        +0.000000
XC:             -22.742336
Entropy (-ST):   -0.003309
Local:           -0.505023
SIC:             +0.000000
--------------------------
Free energy:    -20.543276
Extrapolated:   -20.541621

Showing only first 2 kpts
 Kpt  Band  Eigenvalues  Occupancy
  0    54     -2.33641    2.00000
  0    55     -1.75004    2.00000
  0    56     -1.14496    0.02336
  0    57     -0.66544    0.00000

  1    54     -1.98176    2.00000
  1    55     -1.39936    2.00000
  1    56     -0.79878    0.00000
  1    57     -0.32905    0.00000


Fermi level: -1.18934

No gap

Forces in eV/Ang:
  0 Na    0.00000   -0.02206    0.03878
  1 Na    0.00000    0.02272   -0.00968
  2 Na    0.00000   -0.00303   -0.03689
  3 Na    0.00000    0.00688    0.00061
  4 Na    0.00000   -0.00744    0.02230
  5 Na    0.00000    0.00101   -0.00070
  6 Na    0.00000    0.00151   -0.00845
  7 Na    0.00000    0.00084   -0.00555
  8 Na    0.00000   -0.00079    0.00536
  9 Na    0.00000   -0.00160    0.00864
 10 Na    0.00000   -0.00102    0.00111
 11 Na    0.00000    0.00736   -0.02208
 12 Na    0.00000   -0.00672   -0.00052
 13 Na    0.00000    0.00302    0.03615
 14 Na    0.00000   -0.02263    0.00950
 15 Na    0.00000    0.02195   -0.03876

System changes: positions 

Initializing position-dependent things.

Density initialized from wave functions
   .--------------.  
  /|              |  
 * |              |  
 | |              |  
 | |              |  
 | |              |  
 | |              |  
 | |              |  
 | |              |  
 | |              |  
 | |              |  
 | |              |  
 | |              |  
 | |              |  
 | |              |  
 | |              |  
 | |              |  
 | |              |  
 | |              |  
 | |              |  
 | |     Na       |  
 |Na              |  
 | |              |  
 | |              |  
 | |     Na       |  
 | Na             |  
 | |              |  
 | |      Na      |  
 | |              |  
 | |              |  
 |Na              |  
 | |              |  
 | |              |  
 | |     Na       |  
 |Na              |  
 | |              |  
 | |     Na       |  
 | Na             |  
 | |              |  
 | |              |  
 | |      Na      |  
 | |              |  
 | |              |  
 |Na              |  
 | |              |  
 | |     Na       |  
 |Na              |  
 | |              |  
 | |              |  
 | |     Na       |  
 | Na             |  
 | |              |  
 | |              |  
 | |              |  
 | |              |  
 | |              |  
 | |              |  
 | |              |  
 | |              |  
 | |              |  
 | |              |  
 | |              |  
 | |              |  
 | |              |  
 | |              |  
 | |              |  
 | |              |  
 | |              |  
 | .--------------.  
 |/              /   
 *--------------*    

Positions:
   0 Na     0.000000   -0.083588   15.093814    ( 0.0000,  0.0000,  0.0000)
   1 Na     2.965040    1.305547   16.658138    ( 0.0000,  0.0000,  0.0000)
   2 Na    -0.000000    2.403492   18.429844    ( 0.0000,  0.0000,  0.0000)
   3 Na     2.965040    0.002091   20.107474    ( 0.0000,  0.0000,  0.0000)
   4 Na     0.000000    1.213939   21.842261    ( 0.0000,  0.0000,  0.0000)
   5 Na     2.965040    2.422890   23.565112    ( 0.0000,  0.0000,  0.0000)
   6 Na    -0.000000   -0.001276   25.265574    ( 0.0000,  0.0000,  0.0000)
   7 Na     2.965040    1.208566   26.980644    ( 0.0000,  0.0000,  0.0000)
   8 Na     0.000000    2.422742   28.696431    ( 0.0000,  0.0000,  0.0000)
   9 Na     2.965040    3.632679   30.411346    ( 0.0000,  0.0000,  0.0000)
  10 Na     0.000000    1.208459   32.112406    ( 0.0000,  0.0000,  0.0000)
  11 Na     2.965040    2.417758   33.835367    ( 0.0000,  0.0000,  0.0000)
  12 Na    -0.000000   -0.002123   35.570864    ( 0.0000,  0.0000,  0.0000)
  13 Na     2.965040    1.228074   37.248385    ( 0.0000,  0.0000,  0.0000)
  14 Na     0.000000    2.325457   39.020524    ( 0.0000,  0.0000,  0.0000)
  15 Na     2.965040    0.083708   40.584431    ( 0.0000,  0.0000,  0.0000)

Unit cell:
           periodic     x           y           z      points  spacing
  1. axis:    yes    5.930080    0.000000    0.000000    32     0.1853
  2. axis:    yes    0.000000    3.631418    0.000000    20     0.1816
  3. axis:    no     0.000000    0.000000   55.678001   288     0.1933

  Lengths:   5.930080   3.631418  55.678001
  Angles:   90.000000  90.000000  90.000000

Effective grid spacing dv^(1/3) = 0.1867

     iter     time        total  log10-change:
                         energy   eigst   dens
iter:   1 19:15:29   -20.847282   -2.99
iter:   2 19:15:31   -20.949693   -3.54  -1.76
iter:   3 19:15:32   -20.607114   -4.20  -1.69
iter:   4 19:15:34   -20.639321   -4.72  -2.14
iter:   5 19:15:36   -20.546912   -4.97  -2.02
iter:   6 19:15:38   -20.545681   -5.52  -2.76
iter:   7 19:15:39   -20.544622c  -5.27  -2.91
iter:   8 19:15:41   -20.544630c  -5.98  -3.38
iter:   9 19:15:43   -20.544578c  -6.38  -3.41
iter:  10 19:15:45   -20.544604c  -6.67  -3.48
iter:  11 19:15:47   -20.544663c  -6.87  -3.54
iter:  12 19:15:49   -20.544579c  -6.73  -3.44
iter:  13 19:15:50   -20.544572c  -7.04  -3.89
iter:  14 19:15:52   -20.544569c  -7.51c -4.04c

Converged after 14 iterations.

Dipole moment: (-0.000000, -0.000645, 0.000132) |e|*Ang

Energy contributions relative to reference atoms: (reference = -70697.767962)

Kinetic:        +21.537957
Potential:      -18.775404
External:        +0.000000
XC:             -22.793010
Entropy (-ST):   -0.003176
Local:           -0.512524
SIC:             +0.000000
--------------------------
Free energy:    -20.546157
Extrapolated:   -20.544569

Showing only first 2 kpts
 Kpt  Band  Eigenvalues  Occupancy
  0    54     -2.33247    2.00000
  0    55     -1.74616    2.00000
  0    56     -1.13921    0.00925
  0    57     -0.66569    0.00000

  1    54     -1.97792    2.00000
  1    55     -1.39556    2.00000
  1    56     -0.79306    0.00000
  1    57     -0.32933    0.00000


Fermi level: -1.19293

No gap

Forces in eV/Ang:
  0 Na    0.00000   -0.01887    0.01994
  1 Na    0.00000    0.02306   -0.00532
  2 Na    0.00000   -0.00870   -0.00666
  3 Na    0.00000    0.00503   -0.00655
  4 Na    0.00000   -0.00239    0.01219
  5 Na    0.00000    0.00134   -0.00204
  6 Na    0.00000    0.00058   -0.00635
  7 Na    0.00000   -0.00043   -0.00531
  8 Na    0.00000    0.00040    0.00504
  9 Na    0.00000   -0.00058    0.00621
 10 Na    0.00000   -0.00137    0.00210
 11 Na    0.00000    0.00240   -0.01186
 12 Na    0.00000   -0.00506    0.00633
 13 Na    0.00000    0.00875    0.00620
 14 Na    0.00000   -0.02299    0.00514
 15 Na    0.00000    0.01884   -0.01978

System changes: positions 

Initializing position-dependent things.

Density initialized from wave functions
   .--------------.  
  /|              |  
 * |              |  
 | |              |  
 | |              |  
 | |              |  
 | |              |  
 | |              |  
 | |              |  
 | |              |  
 | |              |  
 | |              |  
 | |              |  
 | |              |  
 | |              |  
 | |              |  
 | |              |  
 | |              |  
 | |              |  
 | |              |  
 | |     Na       |  
 |Na              |  
 | |              |  
 | |              |  
 | |     Na       |  
 | Na             |  
 | |              |  
 | |      Na      |  
 | |              |  
 | |              |  
 |Na              |  
 | |              |  
 | |              |  
 | |     Na       |  
 |Na              |  
 | |              |  
 | |     Na       |  
 | Na             |  
 | |              |  
 | |              |  
 | |      Na      |  
 | |              |  
 | |              |  
 |Na              |  
 | |              |  
 | |     Na       |  
 |Na              |  
 | |              |  
 | |              |  
 | |     Na       |  
 | Na             |  
 | |              |  
 | |              |  
 | |              |  
 | |              |  
 | |              |  
 | |              |  
 | |              |  
 | |              |  
 | |              |  
 | |              |  
 | |              |  
 | |              |  
 | |              |  
 | |              |  
 | |              |  
 | |              |  
 | |              |  
 | .--------------.  
 |/              /   
 *--------------*    

Positions:
   0 Na     0.000000   -0.094123   15.112763    ( 0.0000,  0.0000,  0.0000)
   1 Na     2.965040    1.316459   16.650471    ( 0.0000,  0.0000,  0.0000)
   2 Na    -0.000000    2.402816   18.421038    ( 0.0000,  0.0000,  0.0000)
   3 Na     2.965040    0.002210   20.105320    ( 0.0000,  0.0000,  0.0000)
   4 Na     0.000000    1.213768   21.844007    ( 0.0000,  0.0000,  0.0000)
   5 Na     2.965040    2.423003   23.567989    ( 0.0000,  0.0000,  0.0000)
   6 Na    -0.000000   -0.001327   25.264063    ( 0.0000,  0.0000,  0.0000)
   7 Na     2.965040    1.208589   26.979268    ( 0.0000,  0.0000,  0.0000)
   8 Na     0.000000    2.422716   28.697757    ( 0.0000,  0.0000,  0.0000)
   9 Na     2.965040    3.632713   30.412769    ( 0.0000,  0.0000,  0.0000)
  10 Na     0.000000    1.208344   32.109542    ( 0.0000,  0.0000,  0.0000)
  11 Na     2.965040    2.417962   33.833396    ( 0.0000,  0.0000,  0.0000)
  12 Na    -0.000000   -0.002209   35.572992    ( 0.0000,  0.0000,  0.0000)
  13 Na     2.965040    1.228755   37.257064    ( 0.0000,  0.0000,  0.0000)
  14 Na     0.000000    2.314484   39.028497    ( 0.0000,  0.0000,  0.0000)
  15 Na     2.965040    0.094236   40.565684    ( 0.0000,  0.0000,  0.0000)

Unit cell:
           periodic     x           y           z      points  spacing
  1. axis:    yes    5.930080    0.000000    0.000000    32     0.1853
  2. axis:    yes    0.000000    3.631418    0.000000    20     0.1816
  3. axis:    no     0.000000    0.000000   55.678001   288     0.1933

  Lengths:   5.930080   3.631418  55.678001
  Angles:   90.000000  90.000000  90.000000

Effective grid spacing dv^(1/3) = 0.1867

     iter     time        total  log10-change:
                         energy   eigst   dens
iter:   1 19:15:56   -20.686743   -3.53
iter:   2 19:15:58   -20.792205   -3.91  -1.93
iter:   3 19:16:00   -20.620515   -4.54  -1.81
iter:   4 19:16:02   -20.551647   -5.19  -2.07
iter:   5 19:16:04   -20.546572   -5.67  -2.64
iter:   6 19:16:05   -20.546306c  -6.17  -3.09
iter:   7 19:16:07   -20.546110c  -6.11  -3.22
iter:   8 19:16:09   -20.546052c  -6.27  -3.45
iter:   9 19:16:11   -20.546049c  -6.90  -3.66
iter:  10 19:16:13   -20.546077c  -7.25  -3.69
iter:  11 19:16:15   -20.546109c  -7.33  -3.62
iter:  12 19:16:16   -20.546049c  -7.26  -3.52
iter:  13 19:16:18   -20.546050c  -7.48c -3.96
iter:  14 19:16:20   -20.546053c  -7.55c -4.13c

Converged after 14 iterations.

Dipole moment: (-0.000000, -0.000692, -0.000039) |e|*Ang

Energy contributions relative to reference atoms: (reference = -70697.767962)

Kinetic:        +21.617194
Potential:      -18.829910
External:        +0.000000
XC:             -22.820479
Entropy (-ST):   -0.003081
Local:           -0.511318
SIC:             +0.000000
--------------------------
Free energy:    -20.547593
Extrapolated:   -20.546053

Showing only first 2 kpts
 Kpt  Band  Eigenvalues  Occupancy
  0    54     -2.33204    2.00000
  0    55     -1.74405    2.00000
  0    56     -1.13598    0.00474
  0    57     -0.66753    0.00000

  1    54     -1.97753    2.00000
  1    55     -1.39351    2.00000
  1    56     -0.78992    0.00000
  1    57     -0.33118    0.00000


Fermi level: -1.19640

No gap

Forces in eV/Ang:
  0 Na    0.00000   -0.01469    0.00787
  1 Na    0.00000    0.02021   -0.00176
  2 Na    0.00000   -0.01083    0.00748
  3 Na    0.00000    0.00524   -0.00755
  4 Na    0.00000   -0.00197    0.00717
  5 Na    0.00000    0.00148   -0.00569
  6 Na    0.00000    0.00057   -0.00373
  7 Na    0.00000   -0.00066   -0.00228
  8 Na    0.00000    0.00064    0.00226
  9 Na    0.00000   -0.00056    0.00404
 10 Na    0.00000   -0.00153    0.00560
 11 Na    0.00000    0.00197   -0.00724
 12 Na    0.00000   -0.00531    0.00730
 13 Na    0.00000    0.01090   -0.00729
 14 Na    0.00000   -0.02014    0.00165
 15 Na    0.00000    0.01470   -0.00792

System changes: positions 

Initializing position-dependent things.

Density initialized from wave functions
   .--------------.  
  /|              |  
 * |              |  
 | |              |  
 | |              |  
 | |              |  
 | |              |  
 | |              |  
 | |              |  
 | |              |  
 | |              |  
 | |              |  
 | |              |  
 | |              |  
 | |              |  
 | |              |  
 | |              |  
 | |              |  
 | |              |  
 | |              |  
 | |     Na       |  
 |Na              |  
 | |              |  
 | |              |  
 | |     Na       |  
 | Na             |  
 | |              |  
 | |      Na      |  
 | |              |  
 | |              |  
 |Na              |  
 | |              |  
 | |              |  
 | |     Na       |  
 |Na              |  
 | |              |  
 | |     Na       |  
 | Na             |  
 | |              |  
 | |              |  
 | |      Na      |  
 | |              |  
 | |              |  
 |Na              |  
 | |              |  
 | |     Na       |  
 |Na              |  
 | |              |  
 | |              |  
 | |     Na       |  
 | Na             |  
 | |              |  
 | |              |  
 | |              |  
 | |              |  
 | |              |  
 | |              |  
 | |              |  
 | |              |  
 | |              |  
 | |              |  
 | |              |  
 | |              |  
 | |              |  
 | |              |  
 | |              |  
 | |              |  
 | |              |  
 | .--------------.  
 |/              /   
 *--------------*    

Positions:
   0 Na     0.000000   -0.120436   15.141410    ( 0.0000,  0.0000,  0.0000)
   1 Na     2.965040    1.346993   16.634515    ( 0.0000,  0.0000,  0.0000)
   2 Na    -0.000000    2.395732   18.425684    ( 0.0000,  0.0000,  0.0000)
   3 Na     2.965040    0.003255   20.094873    ( 0.0000,  0.0000,  0.0000)
   4 Na     0.000000    1.214952   21.841633    ( 0.0000,  0.0000,  0.0000)
   5 Na     2.965040    2.423764   23.569952    ( 0.0000,  0.0000,  0.0000)
   6 Na    -0.000000   -0.001725   25.263394    ( 0.0000,  0.0000,  0.0000)
   7 Na     2.965040    1.207827   26.978811    ( 0.0000,  0.0000,  0.0000)
   8 Na     0.000000    2.423430   28.698333    ( 0.0000,  0.0000,  0.0000)
   9 Na     2.965040    3.633112   30.413314    ( 0.0000,  0.0000,  0.0000)
  10 Na     0.000000    1.207555   32.107481    ( 0.0000,  0.0000,  0.0000)
  11 Na     2.965040    2.416870   33.835605    ( 0.0000,  0.0000,  0.0000)
  12 Na    -0.000000   -0.003280   35.583373    ( 0.0000,  0.0000,  0.0000)
  13 Na     2.965040    1.235897   37.252359    ( 0.0000,  0.0000,  0.0000)
  14 Na     0.000000    2.283833   39.044679    ( 0.0000,  0.0000,  0.0000)
  15 Na     2.965040    0.120582   40.537186    ( 0.0000,  0.0000,  0.0000)

Unit cell:
           periodic     x           y           z      points  spacing
  1. axis:    yes    5.930080    0.000000    0.000000    32     0.1853
  2. axis:    yes    0.000000    3.631418    0.000000    20     0.1816
  3. axis:    no     0.000000    0.000000   55.678001   288     0.1933

  Lengths:   5.930080   3.631418  55.678001
  Angles:   90.000000  90.000000  90.000000

Effective grid spacing dv^(1/3) = 0.1867

     iter     time        total  log10-change:
                         energy   eigst   dens
iter:   1 19:16:24   -20.749151   -3.24
iter:   2 19:16:26   -20.856660   -3.74  -1.85
iter:   3 19:16:28   -20.552246   -4.44  -1.76
iter:   4 19:16:30   -20.576093   -5.14  -2.69
iter:   5 19:16:31   -20.549094c  -5.58  -2.25
iter:   6 19:16:33   -20.548808c  -5.53  -2.94
iter:   7 19:16:35   -20.548081c  -6.31  -3.01
iter:   8 19:16:37   -20.548089c  -6.46  -3.33
iter:   9 19:16:38   -20.548124c  -6.19  -3.41
iter:  10 19:16:40   -20.548166c  -6.55  -3.59
iter:  11 19:16:42   -20.548169c  -7.00  -3.59
iter:  12 19:16:44   -20.548144c  -7.07  -3.59
iter:  13 19:16:46   -20.548140c  -7.16  -3.88
iter:  14 19:16:47   -20.548140c  -7.64c -4.01c

Converged after 14 iterations.

Dipole moment: (-0.000000, -0.000729, 0.000195) |e|*Ang

Energy contributions relative to reference atoms: (reference = -70697.767962)

Kinetic:        +21.778025
Potential:      -18.952121
External:        +0.000000
XC:             -22.862347
Entropy (-ST):   -0.002966
Local:           -0.510213
SIC:             +0.000000
--------------------------
Free energy:    -20.549623
Extrapolated:   -20.548140

Showing only first 2 kpts
 Kpt  Band  Eigenvalues  Occupancy
  0    54     -2.33544    2.00000
  0    55     -1.74303    2.00000
  0    56     -1.13365    0.00194
  0    57     -0.67247    0.00000

  1    54     -1.98094    2.00000
  1    55     -1.39260    2.00000
  1    56     -0.78781    0.00000
  1    57     -0.33613    0.00000


Fermi level: -1.20304

No gap

Forces in eV/Ang:
  0 Na    0.00000   -0.00731   -0.00940
  1 Na    0.00000    0.01462    0.00235
  2 Na    0.00000   -0.01360    0.01648
  3 Na    0.00000    0.00679   -0.00373
  4 Na    0.00000   -0.00316    0.00943
  5 Na    0.00000    0.00181   -0.01097
  6 Na    0.00000    0.00094   -0.00334
  7 Na    0.00000   -0.00065   -0.00084
  8 Na    0.00000    0.00064    0.00024
  9 Na    0.00000   -0.00093    0.00344
 10 Na    0.00000   -0.00187    0.01100
 11 Na    0.00000    0.00314   -0.00923
 12 Na    0.00000   -0.00686    0.00381
 13 Na    0.00000    0.01366   -0.01638
 14 Na    0.00000   -0.01453   -0.00293
 15 Na    0.00000    0.00730    0.00901

System changes: positions 

Initializing position-dependent things.

Density initialized from wave functions
   .--------------.  
  /|              |  
 * |              |  
 | |              |  
 | |              |  
 | |              |  
 | |              |  
 | |              |  
 | |              |  
 | |              |  
 | |              |  
 | |              |  
 | |              |  
 | |              |  
 | |              |  
 | |              |  
 | |              |  
 | |              |  
 | |              |  
 | |              |  
 | |     Na       |  
 |Na              |  
 | |              |  
 | |              |  
 | |     Na       |  
 | Na             |  
 | |              |  
 | |      Na      |  
 | |              |  
 | |              |  
 |Na              |  
 | |              |  
 | |              |  
 | |     Na       |  
 |Na              |  
 | |              |  
 | |     Na       |  
 | Na             |  
 | |              |  
 | |              |  
 | |      Na      |  
 | |              |  
 | |              |  
 |Na              |  
 | |              |  
 | |     Na       |  
 |Na              |  
 | |              |  
 | |              |  
 | |     Na       |  
 | Na             |  
 | |              |  
 | |              |  
 | |              |  
 | |              |  
 | |              |  
 | |              |  
 | |              |  
 | |              |  
 | |              |  
 | |              |  
 | |              |  
 | |              |  
 | |              |  
 | |              |  
 | |              |  
 | |              |  
 | |              |  
 | .--------------.  
 |/              /   
 *--------------*    

Positions:
   0 Na     0.000000   -0.144476   15.156799    ( 0.0000,  0.0000,  0.0000)
   1 Na     2.965040    1.376817   16.621787    ( 0.0000,  0.0000,  0.0000)
   2 Na    -0.000000    2.386078   18.445130    ( 0.0000,  0.0000,  0.0000)
   3 Na     2.965040    0.004706   20.082483    ( 0.0000,  0.0000,  0.0000)
   4 Na     0.000000    1.216908   21.835814    ( 0.0000,  0.0000,  0.0000)
   5 Na     2.965040    2.424747   23.568676    ( 0.0000,  0.0000,  0.0000)
   6 Na    -0.000000   -0.002228   25.264493    ( 0.0000,  0.0000,  0.0000)
   7 Na     2.965040    1.206665   26.980054    ( 0.0000,  0.0000,  0.0000)
   8 Na     0.000000    2.424526   28.697323    ( 0.0000,  0.0000,  0.0000)
   9 Na     2.965040    3.633645   30.412144    ( 0.0000,  0.0000,  0.0000)
  10 Na     0.000000    1.206533   32.108597    ( 0.0000,  0.0000,  0.0000)
  11 Na     2.965040    2.415007   33.841513    ( 0.0000,  0.0000,  0.0000)
  12 Na    -0.000000   -0.004814   35.595704    ( 0.0000,  0.0000,  0.0000)
  13 Na     2.965040    1.245626   37.232995    ( 0.0000,  0.0000,  0.0000)
  14 Na     0.000000    2.253926   39.057292    ( 0.0000,  0.0000,  0.0000)
  15 Na     2.965040    0.144681   40.521727    ( 0.0000,  0.0000,  0.0000)

Unit cell:
           periodic     x           y           z      points  spacing
  1. axis:    yes    5.930080    0.000000    0.000000    32     0.1853
  2. axis:    yes    0.000000    3.631418    0.000000    20     0.1816
  3. axis:    no     0.000000    0.000000   55.678001   288     0.1933

  Lengths:   5.930080   3.631418  55.678001
  Angles:   90.000000  90.000000  90.000000

Effective grid spacing dv^(1/3) = 0.1867

     iter     time        total  log10-change:
                         energy   eigst   dens
iter:   1 19:16:52   -20.609920   -3.34
iter:   2 19:16:53   -20.737425   -4.10  -2.12
iter:   3 19:16:55   -20.646980   -4.61  -1.89
iter:   4 19:16:57   -20.552195   -5.20  -2.00
iter:   5 19:16:59   -20.549642   -5.60  -2.73
iter:   6 19:17:00   -20.549192c  -5.87  -2.98
iter:   7 19:17:02   -20.549124c  -6.01  -3.17
iter:   8 19:17:04   -20.549144c  -6.50  -3.35
iter:   9 19:17:06   -20.549175c  -6.74  -3.40
iter:  10 19:17:08   -20.549431c  -6.40  -3.46
iter:  11 19:17:09   -20.549209c  -6.74  -3.27
iter:  12 19:17:11   -20.549189c  -7.01  -3.68
iter:  13 19:17:13   -20.549182c  -7.31  -3.88
iter:  14 19:17:15   -20.549180c  -7.37  -4.01c
iter:  15 19:17:17   -20.549182c  -7.72c -4.22c

Converged after 15 iterations.

Dipole moment: (-0.000000, -0.000643, -0.000284) |e|*Ang

Energy contributions relative to reference atoms: (reference = -70697.767962)

Kinetic:        +21.788704
Potential:      -18.954002
External:        +0.000000
XC:             -22.872901
Entropy (-ST):   -0.002985
Local:           -0.509489
SIC:             +0.000000
--------------------------
Free energy:    -20.550674
Extrapolated:   -20.549182

Showing only first 2 kpts
 Kpt  Band  Eigenvalues  Occupancy
  0    54     -2.33955    2.00000
  0    55     -1.74298    2.00000
  0    56     -1.13336    0.00140
  0    57     -0.67612    0.00000

  1    54     -1.98500    2.00000
  1    55     -1.39260    2.00000
  1    56     -0.78769    0.00000
  1    57     -0.33977    0.00000


Fermi level: -1.20596

No gap

Forces in eV/Ang:
  0 Na    0.00000   -0.00068   -0.00883
  1 Na    0.00000    0.00791    0.00667
  2 Na    0.00000   -0.01408    0.00365
  3 Na    0.00000    0.00914    0.00074
  4 Na    0.00000   -0.00620    0.01748
  5 Na    0.00000    0.00207   -0.01416
  6 Na    0.00000    0.00158   -0.00374
  7 Na    0.00000   -0.00015    0.00015
  8 Na    0.00000    0.00018    0.00017
  9 Na    0.00000   -0.00159    0.00474
 10 Na    0.00000   -0.00213    0.01460
 11 Na    0.00000    0.00613   -0.01725
 12 Na    0.00000   -0.00914   -0.00067
 13 Na    0.00000    0.01413   -0.00365
 14 Na    0.00000   -0.00778   -0.00700
 15 Na    0.00000    0.00062    0.00858

System changes: positions 

Initializing position-dependent things.

Density initialized from wave functions
   .--------------.  
  /|              |  
 * |              |  
 | |              |  
 | |              |  
 | |              |  
 | |              |  
 | |              |  
 | |              |  
 | |              |  
 | |              |  
 | |              |  
 | |              |  
 | |              |  
 | |              |  
 | |              |  
 | |              |  
 | |              |  
 | |              |  
 | |              |  
 | |     Na       |  
 |Na              |  
 | |              |  
 | |              |  
 | |     Na       |  
 | Na             |  
 | |              |  
 | |      Na      |  
 | |              |  
 | |              |  
 |Na              |  
 | |              |  
 | |              |  
 | |     Na       |  
 |Na              |  
 | |              |  
 | |     Na       |  
 | Na             |  
 | |              |  
 | |              |  
 | |      Na      |  
 | |              |  
 | |              |  
 |Na              |  
 | |              |  
 | |     Na       |  
 |Na              |  
 | |              |  
 | |              |  
 | |     Na       |  
 | Na             |  
 | |              |  
 | |              |  
 | |              |  
 | |              |  
 | |              |  
 | |              |  
 | |              |  
 | |              |  
 | |              |  
 | |              |  
 | |              |  
 | |              |  
 | |              |  
 | |              |  
 | |              |  
 | |              |  
 | |              |  
 | .--------------.  
 |/              /   
 *--------------*    

Positions:
   0 Na     0.000000   -0.147111   15.155564    ( 0.0000,  0.0000,  0.0000)
   1 Na     2.965040    1.380685   16.620980    ( 0.0000,  0.0000,  0.0000)
   2 Na    -0.000000    2.383999   18.451274    ( 0.0000,  0.0000,  0.0000)
   3 Na     2.965040    0.005117   20.080378    ( 0.0000,  0.0000,  0.0000)
   4 Na     0.000000    1.217268   21.834447    ( 0.0000,  0.0000,  0.0000)
   5 Na     2.965040    2.424958   23.567548    ( 0.0000,  0.0000,  0.0000)
   6 Na    -0.000000   -0.002300   25.265024    ( 0.0000,  0.0000,  0.0000)
   7 Na     2.965040    1.206413   26.980634    ( 0.0000,  0.0000,  0.0000)
   8 Na     0.000000    2.424765   28.696813    ( 0.0000,  0.0000,  0.0000)
   9 Na     2.965040    3.633727   30.411634    ( 0.0000,  0.0000,  0.0000)
  10 Na     0.000000    1.206313   32.109695    ( 0.0000,  0.0000,  0.0000)
  11 Na     2.965040    2.414658   33.842955    ( 0.0000,  0.0000,  0.0000)
  12 Na     0.000000   -0.005251   35.597803    ( 0.0000,  0.0000,  0.0000)
  13 Na     2.965040    1.247719   37.226895    ( 0.0000,  0.0000,  0.0000)
  14 Na     0.000000    2.250057   39.058000    ( 0.0000,  0.0000,  0.0000)
  15 Na     2.965040    0.147330   40.522898    ( 0.0000,  0.0000,  0.0000)

Unit cell:
           periodic     x           y           z      points  spacing
  1. axis:    yes    5.930080    0.000000    0.000000    32     0.1853
  2. axis:    yes    0.000000    3.631418    0.000000    20     0.1816
  3. axis:    no     0.000000    0.000000   55.678001   288     0.1933

  Lengths:   5.930080   3.631418  55.678001
  Angles:   90.000000  90.000000  90.000000

Effective grid spacing dv^(1/3) = 0.1867

     iter     time        total  log10-change:
                         energy   eigst   dens
iter:   1 19:17:21   -20.564899   -4.41
iter:   2 19:17:23   -20.802779   -4.66  -2.44
iter:   3 19:17:24   -20.552836   -5.14  -1.80
iter:   4 19:17:26   -20.549642   -5.90  -2.73
iter:   5 19:17:28   -20.549384c  -6.32  -3.25
iter:   6 19:17:30   -20.549302c  -6.83  -3.43
iter:   7 19:17:31   -20.549284c  -7.09  -3.60
iter:   8 19:17:33   -20.549270c  -6.91  -3.72
iter:   9 19:17:35   -20.549270c  -7.60c -4.11c

Converged after 9 iterations.

Dipole moment: (-0.000000, -0.000589, -0.000233) |e|*Ang

Energy contributions relative to reference atoms: (reference = -70697.767962)

Kinetic:        +21.763221
Potential:      -18.935608
External:        +0.000000
XC:             -22.868105
Entropy (-ST):   -0.003001
Local:           -0.507277
SIC:             +0.000000
--------------------------
Free energy:    -20.550771
Extrapolated:   -20.549270

Showing only first 2 kpts
 Kpt  Band  Eigenvalues  Occupancy
  0    54     -2.34139    2.00000
  0    55     -1.74428    2.00000
  0    56     -1.13483    0.00153
  0    57     -0.67721    0.00000

  1    54     -1.98683    2.00000
  1    55     -1.39389    2.00000
  1    56     -0.78918    0.00000
  1    57     -0.34086    0.00000


Fermi level: -1.20661

No gap

Forces in eV/Ang:
  0 Na    0.00000    0.00005   -0.00664
  1 Na    0.00000    0.00599    0.00624
  2 Na    0.00000   -0.01242   -0.00328
  3 Na    0.00000    0.00985    0.00217
  4 Na    0.00000   -0.00785    0.02092
  5 Na    0.00000    0.00200   -0.01092
  6 Na    0.00000    0.00185   -0.00693
  7 Na    0.00000    0.00032   -0.00311
  8 Na    0.00000   -0.00026    0.00328
  9 Na    0.00000   -0.00187    0.00812
 10 Na    0.00000   -0.00204    0.01119
 11 Na    0.00000    0.00777   -0.02092
 12 Na    0.00000   -0.00981   -0.00203
 13 Na    0.00000    0.01244    0.00345
 14 Na    0.00000   -0.00587   -0.00647
 15 Na    0.00000   -0.00015    0.00660

System changes: positions 

Initializing position-dependent things.

Density initialized from wave functions
   .--------------.  
  /|              |  
 * |              |  
 | |              |  
 | |              |  
 | |              |  
 | |              |  
 | |              |  
 | |              |  
 | |              |  
 | |              |  
 | |              |  
 | |              |  
 | |              |  
 | |              |  
 | |              |  
 | |              |  
 | |              |  
 | |              |  
 | |              |  
 | |     Na       |  
 |Na              |  
 | |              |  
 | |              |  
 | |     Na       |  
 | Na             |  
 | |              |  
 | |      Na      |  
 | |              |  
 | |              |  
 |Na              |  
 | |              |  
 | |              |  
 | |     Na       |  
 |Na              |  
 | |              |  
 | |     Na       |  
 | Na             |  
 | |              |  
 | |              |  
 | |      Na      |  
 | |              |  
 | |              |  
 |Na              |  
 | |              |  
 | |     Na       |  
 |Na              |  
 | |              |  
 | |              |  
 | |     Na       |  
 | Na             |  
 | |              |  
 | |              |  
 | |              |  
 | |              |  
 | |              |  
 | |              |  
 | |              |  
 | |              |  
 | |              |  
 | |              |  
 | |              |  
 | |              |  
 | |              |  
 | |              |  
 | |              |  
 | |              |  
 | |              |  
 | .--------------.  
 |/              /   
 *--------------*    

Positions:
   0 Na     0.000000   -0.144389   15.151635    ( 0.0000,  0.0000,  0.0000)
   1 Na     2.965040    1.377803   16.622915    ( 0.0000,  0.0000,  0.0000)
   2 Na    -0.000000    2.384221   18.451939    ( 0.0000,  0.0000,  0.0000)
   3 Na     2.965040    0.005245   20.081258    ( 0.0000,  0.0000,  0.0000)
   4 Na     0.000000    1.217063   21.834810    ( 0.0000,  0.0000,  0.0000)
   5 Na     2.965040    2.424943   23.566879    ( 0.0000,  0.0000,  0.0000)
   6 Na    -0.000000   -0.002234   25.265109    ( 0.0000,  0.0000,  0.0000)
   7 Na     2.965040    1.206459   26.980761    ( 0.0000,  0.0000,  0.0000)
   8 Na     0.000000    2.424723   28.696690    ( 0.0000,  0.0000,  0.0000)
   9 Na     2.965040    3.633662   30.411590    ( 0.0000,  0.0000,  0.0000)
  10 Na     0.000000    1.206329   32.110375    ( 0.0000,  0.0000,  0.0000)
  11 Na     2.965040    2.414851   33.842628    ( 0.0000,  0.0000,  0.0000)
  12 Na     0.000000   -0.005380   35.596930    ( 0.0000,  0.0000,  0.0000)
  13 Na     2.965040    1.247494   37.226248    ( 0.0000,  0.0000,  0.0000)
  14 Na     0.000000    2.252956   39.056011    ( 0.0000,  0.0000,  0.0000)
  15 Na     2.965040    0.144604   40.526795    ( 0.0000,  0.0000,  0.0000)

Unit cell:
           periodic     x           y           z      points  spacing
  1. axis:    yes    5.930080    0.000000    0.000000    32     0.1853
  2. axis:    yes    0.000000    3.631418    0.000000    20     0.1816
  3. axis:    no     0.000000    0.000000   55.678001   288     0.1933

  Lengths:   5.930080   3.631418  55.678001
  Angles:   90.000000  90.000000  90.000000

Effective grid spacing dv^(1/3) = 0.1867

     iter     time        total  log10-change:
                         energy   eigst   dens
iter:   1 19:17:39   -20.558398   -4.96
iter:   2 19:17:41   -20.671509   -4.98  -2.55
iter:   3 19:17:43   -20.555175   -5.40  -1.96
iter:   4 19:17:44   -20.549411   -6.19  -2.63
iter:   5 19:17:46   -20.549336c  -6.71  -3.49
iter:   6 19:17:48   -20.549307c  -7.17  -3.71
iter:   7 19:17:50   -20.549296c  -7.42c -3.88
iter:   8 19:17:52   -20.549296c  -7.53c -4.08c

Converged after 8 iterations.

Dipole moment: (-0.000000, -0.000576, 0.000230) |e|*Ang

Energy contributions relative to reference atoms: (reference = -70697.767962)

Kinetic:        +21.744850
Potential:      -18.922438
External:        +0.000000
XC:             -22.863226
Entropy (-ST):   -0.003023
Local:           -0.506971
SIC:             +0.000000
--------------------------
Free energy:    -20.550808
Extrapolated:   -20.549296

Showing only first 2 kpts
 Kpt  Band  Eigenvalues  Occupancy
  0    54     -2.34058    2.00000
  0    55     -1.74400    2.00000
  0    56     -1.13479    0.00175
  0    57     -0.67601    0.00000

  1    54     -1.98601    2.00000
  1    55     -1.39360    2.00000
  1    56     -0.78912    0.00000
  1    57     -0.33966    0.00000


Fermi level: -1.20522

No gap

Forces in eV/Ang:
  0 Na    0.00000   -0.00333   -0.00250
  1 Na    0.00000    0.01005    0.00622
  2 Na    0.00000   -0.01242   -0.00457
  3 Na    0.00000    0.00946    0.00011
  4 Na    0.00000   -0.00683    0.02016
  5 Na    0.00000    0.00207   -0.01295
  6 Na    0.00000    0.00151   -0.00544
  7 Na    0.00000    0.00009   -0.00162
  8 Na    0.00000   -0.00005    0.00104
  9 Na    0.00000   -0.00154    0.00535
 10 Na    0.00000   -0.00210    0.01261
 11 Na    0.00000    0.00676   -0.02045
 12 Na    0.00000   -0.00944   -0.00014
 13 Na    0.00000    0.01246    0.00460
 14 Na    0.00000   -0.00992   -0.00627
 15 Na    0.00000    0.00324    0.00275

System changes: positions 

Initializing position-dependent things.

Density initialized from wave functions
   .--------------.  
  /|              |  
 * |              |  
 | |              |  
 | |              |  
 | |              |  
 | |              |  
 | |              |  
 | |              |  
 | |              |  
 | |              |  
 | |              |  
 | |              |  
 | |              |  
 | |              |  
 | |              |  
 | |              |  
 | |              |  
 | |              |  
 | |              |  
 | |     Na       |  
 |Na              |  
 | |              |  
 | |              |  
 | |     Na       |  
 | Na             |  
 | |              |  
 | |      Na      |  
 | |              |  
 | |              |  
 |Na              |  
 | |              |  
 | |              |  
 | |     Na       |  
 |Na              |  
 | |              |  
 | |     Na       |  
 | Na             |  
 | |              |  
 | |              |  
 | |      Na      |  
 | |              |  
 | |              |  
 |Na              |  
 | |              |  
 | |     Na       |  
 |Na              |  
 | |              |  
 | |              |  
 | |     Na       |  
 | Na             |  
 | |              |  
 | |              |  
 | |              |  
 | |              |  
 | |              |  
 | |              |  
 | |              |  
 | |              |  
 | |              |  
 | |              |  
 | |              |  
 | |              |  
 | |              |  
 | |              |  
 | |              |  
 | |              |  
 | |              |  
 | .--------------.  
 |/              /   
 *--------------*    

Positions:
   0 Na     0.000000   -0.145209   15.150131    ( 0.0000,  0.0000,  0.0000)
   1 Na     2.965040    1.379450   16.623144    ( 0.0000,  0.0000,  0.0000)
   2 Na    -0.000000    2.382733   18.454892    ( 0.0000,  0.0000,  0.0000)
   3 Na     2.965040    0.005866   20.080438    ( 0.0000,  0.0000,  0.0000)
   4 Na     0.000000    1.216896   21.835049    ( 0.0000,  0.0000,  0.0000)
   5 Na     2.965040    2.425126   23.565749    ( 0.0000,  0.0000,  0.0000)
   6 Na    -0.000000   -0.002185   25.265134    ( 0.0000,  0.0000,  0.0000)
   7 Na     2.965040    1.206354   26.980958    ( 0.0000,  0.0000,  0.0000)
   8 Na     0.000000    2.424825   28.696529    ( 0.0000,  0.0000,  0.0000)
   9 Na     2.965040    3.633618   30.411615    ( 0.0000,  0.0000,  0.0000)
  10 Na     0.000000    1.206141   32.111493    ( 0.0000,  0.0000,  0.0000)
  11 Na     2.965040    2.415019   33.842426    ( 0.0000,  0.0000,  0.0000)
  12 Na     0.000000   -0.006013   35.597748    ( 0.0000,  0.0000,  0.0000)
  13 Na     2.965040    1.248990   37.223322    ( 0.0000,  0.0000,  0.0000)
  14 Na     0.000000    2.251317   39.055717    ( 0.0000,  0.0000,  0.0000)
  15 Na     2.965040    0.145427   40.528266    ( 0.0000,  0.0000,  0.0000)

Unit cell:
           periodic     x           y           z      points  spacing
  1. axis:    yes    5.930080    0.000000    0.000000    32     0.1853
  2. axis:    yes    0.000000    3.631418    0.000000    20     0.1816
  3. axis:    no     0.000000    0.000000   55.678001   288     0.1933

  Lengths:   5.930080   3.631418  55.678001
  Angles:   90.000000  90.000000  90.000000

Effective grid spacing dv^(1/3) = 0.1867

     iter     time        total  log10-change:
                         energy   eigst   dens
[...]
   3 Na     2.965040    0.027786   20.071528    ( 0.0000,  0.0000,  0.0000)
   4 Na     0.000000    1.203047   21.870259    ( 0.0000,  0.0000,  0.0000)
   5 Na     2.965040    2.430629   23.541505    ( 0.0000,  0.0000,  0.0000)
   6 Na    -0.000000    0.000350   25.255441    ( 0.0000,  0.0000,  0.0000)
   7 Na     2.965040    1.205762   26.976846    ( 0.0000,  0.0000,  0.0000)
   8 Na     0.000000    2.425455   28.700696    ( 0.0000,  0.0000,  0.0000)
   9 Na     2.965040    3.631060   30.422567    ( 0.0000,  0.0000,  0.0000)
  10 Na     0.000000    1.200521   32.135909    ( 0.0000,  0.0000,  0.0000)
  11 Na     2.965040    2.428774   33.807155    ( 0.0000,  0.0000,  0.0000)
  12 Na     0.000000   -0.027952   35.606486    ( 0.0000,  0.0000,  0.0000)
  13 Na     2.965040    1.285065   37.212788    ( 0.0000,  0.0000,  0.0000)
  14 Na     0.000000    2.209659   39.054012    ( 0.0000,  0.0000,  0.0000)
  15 Na     2.965040    0.168441   40.522500    ( 0.0000,  0.0000,  0.0000)

Unit cell:
           periodic     x           y           z      points  spacing
  1. axis:    yes    5.930080    0.000000    0.000000    32     0.1853
  2. axis:    yes    0.000000    3.631418    0.000000    20     0.1816
  3. axis:    no     0.000000    0.000000   55.678001   288     0.1933

  Lengths:   5.930080   3.631418  55.678001
  Angles:   90.000000  90.000000  90.000000

Effective grid spacing dv^(1/3) = 0.1867

     iter     time        total  log10-change:
                         energy   eigst   dens
iter:   1 19:20:17   -20.553962   -5.80
iter:   2 19:20:19   -20.609358   -5.45  -2.78
iter:   3 19:20:20   -20.551608   -5.89  -2.11
iter:   4 19:20:22   -20.551475   -6.74  -3.40
iter:   5 19:20:24   -20.551467c  -7.34  -4.02c
iter:   6 19:20:26   -20.551459c  -7.76c -4.14c

Converged after 6 iterations.

Dipole moment: (-0.000000, 0.000746, 0.000105) |e|*Ang

Energy contributions relative to reference atoms: (reference = -70697.767962)

Kinetic:        +21.777846
Potential:      -18.949757
External:        +0.000000
XC:             -22.869550
Entropy (-ST):   -0.003214
Local:           -0.508391
SIC:             +0.000000
--------------------------
Free energy:    -20.553066
Extrapolated:   -20.551459

Showing only first 2 kpts
 Kpt  Band  Eigenvalues  Occupancy
  0    54     -2.34568    2.00000
  0    55     -1.74606    2.00000
  0    56     -1.13605    0.00137
  0    57     -0.67904    0.00000

  1    54     -1.99102    2.00000
  1    55     -1.39558    2.00000
  1    56     -0.79060    0.00000
  1    57     -0.34271    0.00000


Fermi level: -1.20888

No gap

Forces in eV/Ang:
  0 Na    0.00000    0.00650    0.00204
  1 Na    0.00000   -0.00162   -0.00307
  2 Na    0.00000   -0.00842    0.00186
  3 Na    0.00000    0.00746    0.00217
  4 Na    0.00000   -0.00596   -0.00600
  5 Na    0.00000    0.00356    0.00265
  6 Na    0.00000   -0.00359    0.00975
  7 Na    0.00000    0.00118   -0.00388
  8 Na    0.00000   -0.00116    0.00362
  9 Na    0.00000    0.00357   -0.01052
 10 Na    0.00000   -0.00350   -0.00260
 11 Na    0.00000    0.00582    0.00626
 12 Na    0.00000   -0.00740   -0.00205
 13 Na    0.00000    0.00838   -0.00194
 14 Na    0.00000    0.00171    0.00307
 15 Na    0.00000   -0.00656   -0.00197

System changes: positions 

Initializing position-dependent things.

Density initialized from wave functions
   .--------------.  
  /|              |  
 * |              |  
 | |              |  
 | |              |  
 | |              |  
 | |              |  
 | |              |  
 | |              |  
 | |              |  
 | |              |  
 | |              |  
 | |              |  
 | |              |  
 | |              |  
 | |              |  
 | |              |  
 | |              |  
 | |              |  
 | |              |  
 | |     Na       |  
 |Na              |  
 | |              |  
 | |              |  
 | |     Na       |  
 | Na             |  
 | |              |  
 | |      Na      |  
 | |              |  
 | |              |  
 |Na              |  
 | |              |  
 | |              |  
 | |     Na       |  
 |Na              |  
 | |              |  
 | |     Na       |  
 | Na             |  
 | |              |  
 | |              |  
 | |      Na      |  
 | |              |  
 | |              |  
 |Na              |  
 | |              |  
 | |     Na       |  
 |Na              |  
 | |              |  
 | |              |  
 | |     Na       |  
 | Na             |  
 | |              |  
 | |              |  
 | |              |  
 | |              |  
 | |              |  
 | |              |  
 | |              |  
 | |              |  
 | |              |  
 | |              |  
 | |              |  
 | |              |  
 | |              |  
 | |              |  
 | |              |  
 | |              |  
 | |              |  
 | .--------------.  
 |/              /   
 *--------------*    

Positions:
   0 Na     0.000000   -0.029771   15.011700    ( 0.0000,  0.0000,  0.0000)
   1 Na     2.965040    1.288551   16.670460    ( 0.0000,  0.0000,  0.0000)
   2 Na     0.000000    2.340298   18.538871    ( 0.0000,  0.0000,  0.0000)
   3 Na     2.965040    0.043301   20.108321    ( 0.0000,  0.0000,  0.0000)
   4 Na     0.000000    1.190275   21.789439    ( 0.0000,  0.0000,  0.0000)
   5 Na     2.965040    2.442695   23.553789    ( 0.0000,  0.0000,  0.0000)
   6 Na    -0.000000   -0.019956   25.325887    ( 0.0000,  0.0000,  0.0000)
   7 Na     2.965040    1.210801   26.969360    ( 0.0000,  0.0000,  0.0000)
   8 Na     0.000000    2.420507   28.709625    ( 0.0000,  0.0000,  0.0000)
   9 Na     2.965040    3.651477   30.349918    ( 0.0000,  0.0000,  0.0000)
  10 Na     0.000000    1.188900   32.125276    ( 0.0000,  0.0000,  0.0000)
  11 Na     2.965040    2.440703   33.892492    ( 0.0000,  0.0000,  0.0000)
  12 Na     0.000000   -0.043492   35.570119    ( 0.0000,  0.0000,  0.0000)
  13 Na     2.965040    1.291257   37.139589    ( 0.0000,  0.0000,  0.0000)
  14 Na     0.000000    2.343173   39.005218    ( 0.0000,  0.0000,  0.0000)
  15 Na     2.965040    0.029853   40.663620    ( 0.0000,  0.0000,  0.0000)

Unit cell:
           periodic     x           y           z      points  spacing
  1. axis:    yes    5.930080    0.000000    0.000000    32     0.1853
  2. axis:    yes    0.000000    3.631418    0.000000    20     0.1816
  3. axis:    no     0.000000    0.000000   55.678001   288     0.1933

  Lengths:   5.930080   3.631418  55.678001
  Angles:   90.000000  90.000000  90.000000

Effective grid spacing dv^(1/3) = 0.1867

     iter     time        total  log10-change:
                         energy   eigst   dens
iter:   1 19:20:30   -30.329149   -1.41
iter:   2 19:20:32   -38.300555   -0.65  -0.99
iter:   3 19:20:33   -21.525551   -2.38  -0.94
iter:   4 19:20:35   -21.560631   -3.24  -1.55
iter:   5 19:20:37   -20.720816   -3.79  -1.51
iter:   6 19:20:39   -20.624232   -4.12  -1.82
iter:   7 19:20:41   -20.552729   -3.37  -1.91
iter:   8 19:20:42   -20.517119   -4.14  -2.17
iter:   9 19:20:44   -20.507980c  -4.37  -2.42
iter:  10 19:20:46   -20.508029c  -4.80  -2.63
iter:  11 19:20:48   -20.509030c  -5.18  -2.65
iter:  12 19:20:49   -20.507277c  -4.96  -2.63
iter:  13 19:20:51   -20.507589c  -5.05  -2.96
iter:  14 19:20:53   -20.507663c  -5.51  -3.10
iter:  15 19:20:55   -20.507544c  -5.97  -3.16
iter:  16 19:20:57   -20.507917c  -6.11  -3.18
iter:  17 19:20:58   -20.507589c  -6.20  -3.12
iter:  18 19:21:00   -20.507583c  -6.44  -3.36
iter:  19 19:21:02   -20.507577c  -6.60  -3.49
iter:  20 19:21:04   -20.507562c  -6.85  -3.62
iter:  21 19:21:06   -20.507585c  -7.38  -3.68
iter:  22 19:21:07   -20.507576c  -7.67c -3.70
iter:  23 19:21:09   -20.507570c  -7.51c -3.68
iter:  24 19:21:11   -20.507563c  -7.49c -3.86
iter:  25 19:21:13   -20.507563c  -7.73c -4.01c

Converged after 25 iterations.

Dipole moment: (-0.000000, 0.000092, -0.000046) |e|*Ang

Energy contributions relative to reference atoms: (reference = -70697.767962)

Kinetic:        +21.074474
Potential:      -18.414357
External:        +0.000000
XC:             -22.659817
Entropy (-ST):   -0.003084
Local:           -0.506321
SIC:             +0.000000
--------------------------
Free energy:    -20.509105
Extrapolated:   -20.507563

Showing only first 2 kpts
 Kpt  Band  Eigenvalues  Occupancy
  0    54     -2.33950    2.00000
  0    55     -1.76106    2.00000
  0    56     -1.15947    0.17544
  0    57     -0.66913    0.00000

  1    54     -1.98481    2.00000
  1    55     -1.41011    2.00000
  1    56     -0.81321    0.00000
  1    57     -0.33257    0.00000


Fermi level: -1.18288

No gap

Forces in eV/Ang:
  0 Na    0.00000   -0.03782    0.08387
  1 Na    0.00000    0.03253   -0.01344
  2 Na    0.00000    0.02062   -0.12210
  3 Na    0.00000   -0.00639   -0.00202
  4 Na    0.00000   -0.01171    0.10391
  5 Na    0.00000   -0.00241   -0.01075
  6 Na    0.00000    0.00523   -0.04917
  7 Na    0.00000    0.00925   -0.00177
  8 Na    0.00000   -0.00920    0.00129
  9 Na    0.00000   -0.00539    0.05175
 10 Na    0.00000    0.00236    0.00980
 11 Na    0.00000    0.01203   -0.10749
 12 Na    0.00000    0.00683    0.00198
 13 Na    0.00000   -0.02105    0.12274
 14 Na    0.00000   -0.03258    0.01454
 15 Na    0.00000    0.03770   -0.08237

System changes: positions 

Initializing position-dependent things.

Density initialized from wave functions
   .--------------.  
  /|              |  
 * |              |  
 | |              |  
 | |              |  
 | |              |  
 | |              |  
 | |              |  
 | |              |  
 | |              |  
 | |              |  
 | |              |  
 | |              |  
 | |              |  
 | |              |  
 | |              |  
 | |              |  
 | |              |  
 | |              |  
 | |              |  
 | |     Na       |  
 |Na              |  
 | |              |  
 | |              |  
 | |     Na       |  
 | Na             |  
 | |              |  
 | |      Na      |  
 | |              |  
 | |              |  
 |Na              |  
 | |              |  
 | |              |  
 | |     Na       |  
 |Na              |  
 | |              |  
 | |     Na       |  
 | Na             |  
 | |              |  
 | |              |  
 | |      Na      |  
 | |              |  
 | |              |  
 |Na              |  
 | |              |  
 | |     Na       |  
 |Na              |  
 | |              |  
 | |              |  
 | |     Na       |  
 | Na             |  
 | |              |  
 | |              |  
 | |              |  
 | |              |  
 | |              |  
 | |              |  
 | |              |  
 | |              |  
 | |              |  
 | |              |  
 | |              |  
 | |              |  
 | |              |  
 | |              |  
 | |              |  
 | |              |  
 | |              |  
 | .--------------.  
 |/              /   
 *--------------*    

Positions:
   0 Na     0.000000   -0.158264   15.149202    ( 0.0000,  0.0000,  0.0000)
   1 Na     2.965040    1.412051   16.626678    ( 0.0000,  0.0000,  0.0000)
   2 Na    -0.000000    2.345547   18.466978    ( 0.0000,  0.0000,  0.0000)
   3 Na     2.965040    0.029934   20.074968    ( 0.0000,  0.0000,  0.0000)
   4 Na     0.000000    1.201084   21.865179    ( 0.0000,  0.0000,  0.0000)
   5 Na     2.965040    2.431925   23.543190    ( 0.0000,  0.0000,  0.0000)
   6 Na    -0.000000   -0.001468   25.261007    ( 0.0000,  0.0000,  0.0000)
   7 Na     2.965040    1.206346   26.975267    ( 0.0000,  0.0000,  0.0000)
   8 Na     0.000000    2.424887   28.702382    ( 0.0000,  0.0000,  0.0000)
   9 Na     2.965040    3.632877   30.416815    ( 0.0000,  0.0000,  0.0000)
  10 Na     0.000000    1.199267   32.134408    ( 0.0000,  0.0000,  0.0000)
  11 Na     2.965040    2.430659   33.812551    ( 0.0000,  0.0000,  0.0000)
  12 Na     0.000000   -0.030080   35.603077    ( 0.0000,  0.0000,  0.0000)
  13 Na     2.965040    1.286276   37.211155    ( 0.0000,  0.0000,  0.0000)
  14 Na     0.000000    2.218996   39.051569    ( 0.0000,  0.0000,  0.0000)
  15 Na     2.965040    0.158330   40.528999    ( 0.0000,  0.0000,  0.0000)

Unit cell:
           periodic     x           y           z      points  spacing
  1. axis:    yes    5.930080    0.000000    0.000000    32     0.1853
  2. axis:    yes    0.000000    3.631418    0.000000    20     0.1816
  3. axis:    no     0.000000    0.000000   55.678001   288     0.1933

  Lengths:   5.930080   3.631418  55.678001
  Angles:   90.000000  90.000000  90.000000

Effective grid spacing dv^(1/3) = 0.1867

     iter     time        total  log10-change:
                         energy   eigst   dens
iter:   1 19:21:17   -27.607661   -1.60
iter:   2 19:21:19   -29.651999   -1.35  -1.11
iter:   3 19:21:21   -21.447057   -2.15  -1.02
iter:   4 19:21:22   -20.887230   -3.39  -1.59
iter:   5 19:21:24   -20.712866   -3.96  -1.75
iter:   6 19:21:26   -20.638126   -3.50  -1.88
iter:   7 19:21:28   -20.579500   -4.55  -2.03
iter:   8 19:21:29   -20.580173   -4.41  -2.20
iter:   9 19:21:31   -20.552852c  -4.40  -2.24
iter:  10 19:21:33   -20.551942c  -4.92  -2.64
iter:  11 19:21:35   -20.560299c  -5.22  -2.70
iter:  12 19:21:37   -20.552020c  -5.20  -2.45
iter:  13 19:21:38   -20.551879c  -5.47  -2.85
iter:  14 19:21:40   -20.551834c  -5.31  -2.96
iter:  15 19:21:42   -20.551780c  -5.61  -3.19
iter:  16 19:21:44   -20.551733c  -6.04  -3.36
iter:  17 19:21:46   -20.551721c  -6.30  -3.51
iter:  18 19:21:47   -20.551716c  -6.61  -3.68
iter:  19 19:21:49   -20.551721c  -6.98  -3.80
iter:  20 19:21:51   -20.551727c  -7.24  -3.80
iter:  21 19:21:53   -20.551711c  -7.25  -3.77
iter:  22 19:21:55   -20.551709c  -7.75c -4.12c

Converged after 22 iterations.

Dipole moment: (-0.000000, 0.000668, 0.000005) |e|*Ang

Energy contributions relative to reference atoms: (reference = -70697.767962)

Kinetic:        +21.755753
Potential:      -18.935697
External:        +0.000000
XC:             -22.861788
Entropy (-ST):   -0.003208
Local:           -0.508372
SIC:             +0.000000
--------------------------
Free energy:    -20.553313
Extrapolated:   -20.551709

Showing only first 2 kpts
 Kpt  Band  Eigenvalues  Occupancy
  0    54     -2.34364    2.00000
  0    55     -1.74563    2.00000
  0    56     -1.13591    0.00176
  0    57     -0.67730    0.00000

  1    54     -1.98900    2.00000
  1    55     -1.39512    2.00000
  1    56     -0.79041    0.00000
  1    57     -0.34096    0.00000


Fermi level: -1.20623

No gap

Forces in eV/Ang:
  0 Na    0.00000    0.00154    0.00866
  1 Na    0.00000    0.00274   -0.00481
  2 Na    0.00000   -0.00594   -0.00561
  3 Na    0.00000    0.00559   -0.00020
  4 Na    0.00000   -0.00586    0.00335
  5 Na    0.00000    0.00291    0.00133
  6 Na    0.00000   -0.00261    0.00225
  7 Na    0.00000    0.00185   -0.00439
  8 Na    0.00000   -0.00184    0.00433
  9 Na    0.00000    0.00258   -0.00241
 10 Na    0.00000   -0.00286   -0.00148
 11 Na    0.00000    0.00578   -0.00422
 12 Na    0.00000   -0.00552   -0.00028
 13 Na    0.00000    0.00592    0.00592
 14 Na    0.00000   -0.00267    0.00557
 15 Na    0.00000   -0.00159   -0.00845

Timing:                                      incl.     excl.
-------------------------------------------------------------------
Density initialized from wave functions:     6.604     6.495   0.6% |
 Symmetrize density:                         0.109     0.109   0.0% |
Forces:                                     39.692    39.692   3.4% ||
Hamiltonian:                                10.629     0.044   0.0% |
 Atomic:                                     0.516     0.516   0.0% |
  XC Correction:                             0.000     0.000   0.0% |
 Calculate atomic Hamiltonians:              4.769     4.769   0.4% |
 Communicate:                                0.001     0.001   0.0% |
 Initialize Hamiltonian:                     0.001     0.001   0.0% |
 Poisson:                                    0.094     0.094   0.0% |
 XC 3D grid:                                 5.203     5.203   0.5% |
LCAO initialization:                         1.334     0.008   0.0% |
 LCAO eigensolver:                           0.315     0.000   0.0% |
  Calculate projections:                     0.000     0.000   0.0% |
  DenseAtomicCorrection:                     0.001     0.001   0.0% |
  Distribute overlap matrix:                 0.000     0.000   0.0% |
  Orbital Layouts:                           0.004     0.004   0.0% |
  Potential matrix:                          0.309     0.309   0.0% |
  Sum over cells:                            0.001     0.001   0.0% |
 LCAO to grid:                               0.942     0.942   0.1% |
 Set positions (LCAO WFS):                   0.069     0.015   0.0% |
  Basic WFS set positions:                   0.000     0.000   0.0% |
  Basis functions set positions:             0.000     0.000   0.0% |
  P tci:                                     0.022     0.022   0.0% |
  ST tci:                                    0.021     0.021   0.0% |
  mktci:                                     0.010     0.010   0.0% |
PWDescriptor:                                0.621     0.621   0.1% |
Redistribute:                                0.010     0.010   0.0% |
SCF-cycle:                                 515.044    11.646   1.0% |
 Davidson:                                 292.938    88.049   7.6% |--|
  Apply H:                                  42.682    41.560   3.6% ||
   HMM T:                                    1.123     1.123   0.1% |
  Subspace diag:                            35.971     0.026   0.0% |
   calc_h_matrix:                           27.812     6.804   0.6% |
    Apply H:                                21.009    20.471   1.8% ||
     HMM T:                                  0.538     0.538   0.0% |
   diagonalize:                              0.488     0.488   0.0% |
   rotate_psi:                               7.645     7.645   0.7% |
  calc. matrices:                           92.871    49.479   4.3% |-|
   Apply H:                                 43.392    42.319   3.7% ||
    HMM T:                                   1.074     1.074   0.1% |
  diagonalize:                               4.574     4.574   0.4% |
  rotate_psi:                               28.791    28.791   2.5% ||
 Density:                                   81.563     0.005   0.0% |
  Atomic density matrices:                   0.376     0.376   0.0% |
  Mix:                                      69.362    69.362   6.0% |-|
  Multipole moments:                         0.043     0.043   0.0% |
  Pseudo density:                           11.778    10.422   0.9% |
   Symmetrize density:                       1.356     1.356   0.1% |
 Hamiltonian:                              126.412     0.515   0.0% |
  Atomic:                                    6.254     6.253   0.5% |
   XC Correction:                            0.001     0.001   0.0% |
  Calculate atomic Hamiltonians:            56.473    56.473   4.9% |-|
  Communicate:                               0.018     0.018   0.0% |
  Poisson:                                   1.111     1.111   0.1% |
  XC 3D grid:                               62.041    62.041   5.4% |-|
 Orthonormalize:                             2.485     0.004   0.0% |
  calc_s_matrix:                             0.411     0.411   0.0% |
  inverse-cholesky:                          0.030     0.030   0.0% |
  projections:                               1.408     1.408   0.1% |
  rotate_psi_s:                              0.633     0.633   0.1% |
Set symmetry:                                0.001     0.001   0.0% |
Other:                                     577.079   577.079  50.1% |-------------------|
-------------------------------------------------------------------
Total:                                              1151.014 100.0%

Memory usage: 1.23 GiB
Date: Wed Feb 26 19:31:18 2025
