
  ___ ___ ___ _ _ _  
 |   |   |_  | | | | 
 | | | | | . | | | | 
 |__ |  _|___|_____|  24.1.0
 |___|_|             

User:   husi@vera-r04-07
Date:   Wed Feb 26 19:38:00 2025
Arch:   x86_64
Pid:    1475527
CWD:    /cephyr/users/husi/Vera/A3
Python: 3.11.3
gpaw:   /apps/Arch/software/GPAW/24.1.0-foss-2023a/lib/python3.11/site-packages/gpaw
_gpaw:  /apps/Arch/software/GPAW/24.1.0-foss-2023a/lib/python3.11/site-packages/
        _gpaw.cpython-311-x86_64-linux-gnu.so
ase:    /apps/Arch/software/ASE/3.22.1-gfbf-2023a/lib/python3.11/site-packages/ase (version 3.22.1)
numpy:  /apps/Arch/software/SciPy-bundle/2023.07-gfbf-2023a/lib/python3.11/site-packages/numpy (version 1.25.1)
scipy:  /apps/Arch/software/SciPy-bundle/2023.07-gfbf-2023a/lib/python3.11/site-packages/scipy (version 1.11.1)
libxc:  6.2.2
units:  Angstrom and eV
cores: 32
OpenMP: False
OMP_NUM_THREADS: 1

Input parameters:
  kpts: [8 8 1]
  mode: {ecut: 500.0,
         name: pw}
  occupations: {fixmagmom: False,
                name: fermi-dirac,
                width: 0.01}
  xc: PBE

System changes: positions, numbers, cell, pbc, initial_charges, initial_magmoms 

Initialize ...

species:
  Na:
    name: Sodium
    id: d7ecbc49209718622bcbe287195dca2a
    Z: 11.0
    valence: 7
    core: 4
    charge: 0.0
    file: /apps/Common/software/GPAW-setups/24.1.0/Na.PBE.gz
    compensation charges: {type: gauss,
                           rc: 0.37,
                           lmax: 2}
    cutoffs: {filter: 2.17,
              core: 2.59}
    valence states:
      #              energy  rcut
      - 3s(1.00)    -2.744   1.201
      - 2p(6.00)   -28.672   1.217
      - 3p(0.00)    -0.743   1.217
      -  s          24.468   1.201
      -  d           0.000   1.238
  
    # Using partial waves for Na as LCAO basis

Reference energy: -79534.988958  # eV

Spin-paired calculation

Convergence criteria:
 Maximum [total energy] change in last 3 cyles: 0.0005 eV / valence electron
 Maximum integral of absolute [dens]ity change: 0.0001 electrons / valence electron
 Maximum integral of absolute [eigenst]ate change: 4e-08 eV^2 / valence electron
 Maximum number of scf [iter]ations: 333
 (Square brackets indicate name in SCF output, whereas a 'c' in
 the SCF output indicates the quantity has converged.)

Symmetries present (total): 2

  ( 1  0  0)  (-1  0  0)
  ( 0  1  0)  ( 0  1  0)
  ( 0  0  1)  ( 0  0  1)

64 k-points: 8 x 8 x 1 Monkhorst-Pack grid
16 k-points in the irreducible part of the Brillouin zone
       k-points in crystal coordinates                weights
   0:     0.06250000    0.06250000    0.00000000          4/64
   1:     0.06250000    0.18750000    0.00000000          4/64
   2:     0.06250000    0.31250000    0.00000000          4/64
   3:     0.06250000    0.43750000    0.00000000          4/64
   4:     0.18750000    0.06250000    0.00000000          4/64
   5:     0.18750000    0.18750000    0.00000000          4/64
   6:     0.18750000    0.31250000    0.00000000          4/64
   7:     0.18750000    0.43750000    0.00000000          4/64
   8:     0.31250000    0.06250000    0.00000000          4/64
   9:     0.31250000    0.18750000    0.00000000          4/64
          ...
  15:     0.43750000    0.43750000    0.00000000          4/64

Wave functions: Plane wave expansion
  Cutoff energy: 500.000 eV
  Number of coefficients (min, max): 32187, 32413
  Pulay-stress correction: 0.000000 eV/Ang^3 (de/decut=0.000000)
  Using FFTW library
  ScaLapack parameters: grid=1x1, blocksize=None
  Wavefunction extrapolation:
    Improved wavefunction reuse through dual PAW basis 

Occupation numbers: Fermi-Dirac:
  width: 0.0100  # eV
 

Eigensolver
   Davidson(niter=2) 

Densities:
  Coarse grid: 32*20*315 grid
  Fine grid: 64*40*630 grid
  Total Charge: 0.000000 

Density mixing:
  Method: separate
  Backend: pulay
  Linear mixing parameter: 0.05
  old densities: 5
  Damping of long wavelength oscillations: 50 

Hamiltonian:
  XC and Coulomb potentials evaluated on a 64*40*630 grid
  Using the PBE Exchange-Correlation functional
  External potential:
    NoExternalPotential
 

XC parameters: PBE with 2 nearest neighbor stencil

Memory estimate:
  Process memory now: 1259.25 MiB
  Calculator: 151.41 MiB
    Density: 89.54 MiB
      Arrays: 39.99 MiB
      Localized functions: 34.17 MiB
      Mixer: 15.38 MiB
    Hamiltonian: 26.84 MiB
      Arrays: 26.15 MiB
      XC: 0.00 MiB
      Poisson: 0.00 MiB
      vbar: 0.70 MiB
    Wavefunctions: 35.02 MiB
      Arrays psit_nG: 19.78 MiB
      Eigensolver: 3.45 MiB
      Projections: 0.14 MiB
      Projectors: 3.46 MiB
      PW-descriptor: 8.19 MiB

Total number of cores used: 32
Parallelization over k-points: 16
Parallelization over states: 2

Number of atoms: 18
Number of atomic orbitals: 126
Number of bands in calculation: 80
Number of valence electrons: 126
Bands to converge: occupied

... initialized

Initializing position-dependent things.

Density initialized from atomic densities
Creating initial wave functions:
  80 bands from LCAO basis set

   .--------------.  
  /|              |  
 * |              |  
 | |              |  
 | |              |  
 | |              |  
 | |              |  
 | |              |  
 | |              |  
 | |              |  
 | |              |  
 | |              |  
 | |              |  
 | |              |  
 | |              |  
 | |              |  
 | |              |  
 | |              |  
 | |              |  
 | |      Na      |  
 | |              |  
 | |              |  
 |Na              |  
 | |              |  
 | |              |  
 | |     Na       |  
 |Na              |  
 | |              |  
 | |     Na       |  
 | |              |  
 | |              |  
 Na|              |  
 | |      Na      |  
 | |              |  
 | |              |  
 |Na       Na     |  
 | |              |  
 | |              |  
 |Na              |  
 | |              |  
 | |              |  
 | |     Na       |  
 | |              |  
 | |              |  
 Na|              |  
 | |      Na      |  
 | |              |  
 |Na              |  
 | |              |  
 | |              |  
 | |     Na       |  
 |Na              |  
 | |              |  
 | |              |  
 | |     Na       |  
 | |              |  
 Na|              |  
 | |              |  
 | |              |  
 | |              |  
 | |              |  
 | |              |  
 | |              |  
 | |              |  
 | |              |  
 | |              |  
 | |              |  
 | |              |  
 | |              |  
 | |              |  
 | |              |  
 | |              |  
 | |              |  
 | .--------------.  
 |/              /   
 *--------------*    

Positions:
   0 Na     0.000000    0.000000   15.000000    ( 0.0000,  0.0000,  0.0000)
   1 Na     2.965040    1.210473   16.711867    ( 0.0000,  0.0000,  0.0000)
   2 Na     0.000000    2.420945   18.423733    ( 0.0000,  0.0000,  0.0000)
   3 Na     2.965040    0.000000   20.135600    ( 0.0000,  0.0000,  0.0000)
   4 Na     0.000000    1.210473   21.847467    ( 0.0000,  0.0000,  0.0000)
   5 Na     2.965040    2.420945   23.559334    ( 0.0000,  0.0000,  0.0000)
   6 Na     0.000000    0.000000   25.271200    ( 0.0000,  0.0000,  0.0000)
   7 Na     2.965040    1.210473   26.983067    ( 0.0000,  0.0000,  0.0000)
   8 Na     0.000000    2.420945   28.694934    ( 0.0000,  0.0000,  0.0000)
   9 Na     2.965040    3.631418   30.406801    ( 0.0000,  0.0000,  0.0000)
  10 Na     0.000000    1.210473   32.118667    ( 0.0000,  0.0000,  0.0000)
  11 Na     2.965040    2.420945   33.830534    ( 0.0000,  0.0000,  0.0000)
  12 Na     0.000000    0.000000   35.542401    ( 0.0000,  0.0000,  0.0000)
  13 Na     2.965040    1.210473   37.254268    ( 0.0000,  0.0000,  0.0000)
  14 Na     0.000000    2.420945   38.966134    ( 0.0000,  0.0000,  0.0000)
  15 Na     2.965040    0.000000   40.678001    ( 0.0000,  0.0000,  0.0000)
  16 Na     0.000000    1.210473   42.389868    ( 0.0000,  0.0000,  0.0000)
  17 Na     2.965040    2.420945   44.101734    ( 0.0000,  0.0000,  0.0000)

Unit cell:
           periodic     x           y           z      points  spacing
  1. axis:    yes    5.930080    0.000000    0.000000    32     0.1853
  2. axis:    yes    0.000000    3.631418    0.000000    20     0.1816
  3. axis:    no     0.000000    0.000000   59.101734   315     0.1876

  Lengths:   5.930080   3.631418  59.101734
  Angles:   90.000000  90.000000  90.000000

Effective grid spacing dv^(1/3) = 0.1848

     iter     time        total  log10-change:
                         energy   eigst   dens
iter:   1 19:38:07   -23.350128
iter:   2 19:38:11   -23.430270   -1.40  -1.60
iter:   3 19:38:14   -23.313566   -2.11  -1.63
iter:   4 19:38:17   -23.222865   -2.59  -1.66
iter:   5 19:38:21   -23.232282   -2.73  -1.77
iter:   6 19:38:23   -24.295002   -3.18  -1.93
iter:   7 19:38:25   -23.223825   -3.58  -1.48
iter:   8 19:38:28   -23.245802   -3.55  -2.05
iter:   9 19:38:30   -23.203611c  -4.10  -2.10
iter:  10 19:38:32   -23.188925c  -4.37  -2.38
iter:  11 19:38:34   -23.183918c  -4.63  -2.57
iter:  12 19:38:36   -23.191976c  -4.54  -2.71
iter:  13 19:38:39   -23.178299c  -5.10  -2.42
iter:  14 19:38:41   -23.177805c  -5.46  -2.96
iter:  15 19:38:43   -23.178251c  -5.46  -3.00
iter:  16 19:38:45   -23.176816c  -5.09  -2.86
iter:  17 19:38:47   -23.176677c  -5.62  -3.22
iter:  18 19:38:49   -23.176656c  -6.12  -3.45
iter:  19 19:38:52   -23.176655c  -6.41  -3.59
iter:  20 19:38:54   -23.176682c  -6.60  -3.75
iter:  21 19:38:56   -23.176688c  -7.22  -3.75
iter:  22 19:38:58   -23.176662c  -7.55c -3.74
iter:  23 19:39:00   -23.176668c  -7.66c -4.11c

Converged after 23 iterations.

Dipole moment: (-0.000000, 0.018611, -0.000017) |e|*Ang

Energy contributions relative to reference atoms: (reference = -79534.988958)

Kinetic:        +24.121066
Potential:      -21.074698
External:        +0.000000
XC:             -25.652202
Entropy (-ST):   -0.004279
Local:           -0.568695
SIC:             +0.000000
--------------------------
Free energy:    -23.178807
Extrapolated:   -23.176668

Showing only first 2 kpts
 Kpt  Band  Eigenvalues  Occupancy
  0    61     -2.15083    2.00000
  0    62     -1.62721    2.00000
  0    63     -1.07867    0.39471
  0    64     -0.58767    0.00000

  1    61     -1.79704    2.00000
  1    62     -1.27680    2.00000
  1    63     -0.73211    0.00000
  1    64     -0.25133    0.00000


Fermi level: -1.09270

No gap

Forces in eV/Ang:
  0 Na    0.00000   -0.03519    0.05100
  1 Na    0.00000    0.03651   -0.02000
  2 Na    0.00000   -0.00103   -0.02040
  3 Na    0.00000   -0.00015   -0.00967
  4 Na    0.00000   -0.00034   -0.00142
  5 Na    0.00000    0.00022    0.01248
  6 Na    0.00000   -0.00007   -0.00660
  7 Na    0.00000    0.00016   -0.00641
  8 Na    0.00000   -0.00037    0.00768
  9 Na    0.00000    0.00042   -0.00790
 10 Na    0.00000   -0.00023    0.00602
 11 Na    0.00000    0.00010    0.00666
 12 Na    0.00000   -0.00017   -0.01223
 13 Na    0.00000    0.00025    0.00153
 14 Na    0.00000    0.00019    0.00983
 15 Na    0.00000    0.00107    0.02038
 16 Na    0.00000   -0.03661    0.01993
 17 Na    0.00000    0.03523   -0.05098

System changes: positions 

Initializing position-dependent things.

Density initialized from wave functions
   .--------------.  
  /|              |  
 * |              |  
 | |              |  
 | |              |  
 | |              |  
 | |              |  
 | |              |  
 | |              |  
 | |              |  
 | |              |  
 | |              |  
 | |              |  
 | |              |  
 | |              |  
 | |              |  
 | |              |  
 | |              |  
 | |              |  
 | |      Na      |  
 | |              |  
 | |              |  
 |Na              |  
 | |              |  
 | |              |  
 | |     Na       |  
 |Na              |  
 | |              |  
 | |     Na       |  
 | Na             |  
 | |              |  
 | |              |  
 | |      Na      |  
 | |              |  
 | |              |  
 |Na              |  
 | |              |  
 | |     Na       |  
 |Na              |  
 | |              |  
 | |              |  
 | |     Na       |  
 | Na             |  
 | |              |  
 | |              |  
 | |      Na      |  
 | |              |  
 |Na              |  
 | |      Na      |  
 | |              |  
 | |              |  
 |Na              |  
 | |              |  
 | |              |  
 | Na    Na       |  
 | |              |  
 | |              |  
 | |              |  
 | |              |  
 | |              |  
 | |              |  
 | |              |  
 | |              |  
 | |              |  
 | |              |  
 | |              |  
 | |              |  
 | |              |  
 | |              |  
 | |              |  
 | |              |  
 | |              |  
 | |              |  
 | .--------------.  
 |/              /   
 *--------------*    

Positions:
   0 Na     0.000000   -0.000503   15.000729    ( 0.0000,  0.0000,  0.0000)
   1 Na     2.965040    1.210994   16.711581    ( 0.0000,  0.0000,  0.0000)
   2 Na     0.000000    2.420930   18.423442    ( 0.0000,  0.0000,  0.0000)
   3 Na     2.965040   -0.000002   20.135462    ( 0.0000,  0.0000,  0.0000)
   4 Na     0.000000    1.210468   21.847447    ( 0.0000,  0.0000,  0.0000)
   5 Na     2.965040    2.420948   23.559512    ( 0.0000,  0.0000,  0.0000)
   6 Na     0.000000   -0.000001   25.271106    ( 0.0000,  0.0000,  0.0000)
   7 Na     2.965040    1.210475   26.982976    ( 0.0000,  0.0000,  0.0000)
   8 Na     0.000000    2.420940   28.695044    ( 0.0000,  0.0000,  0.0000)
   9 Na     2.965040    3.631424   30.406688    ( 0.0000,  0.0000,  0.0000)
  10 Na     0.000000    1.210469   32.118753    ( 0.0000,  0.0000,  0.0000)
  11 Na     2.965040    2.420947   33.830629    ( 0.0000,  0.0000,  0.0000)
  12 Na     0.000000   -0.000002   35.542226    ( 0.0000,  0.0000,  0.0000)
  13 Na     2.965040    1.210476   37.254289    ( 0.0000,  0.0000,  0.0000)
  14 Na     0.000000    2.420948   38.966275    ( 0.0000,  0.0000,  0.0000)
  15 Na     2.965040    0.000015   40.678292    ( 0.0000,  0.0000,  0.0000)
  16 Na     0.000000    1.209950   42.390152    ( 0.0000,  0.0000,  0.0000)
  17 Na     2.965040    2.421449   44.101006    ( 0.0000,  0.0000,  0.0000)

Unit cell:
           periodic     x           y           z      points  spacing
  1. axis:    yes    5.930080    0.000000    0.000000    32     0.1853
  2. axis:    yes    0.000000    3.631418    0.000000    20     0.1816
  3. axis:    no     0.000000    0.000000   59.101734   315     0.1876

  Lengths:   5.930080   3.631418  59.101734
  Angles:   90.000000  90.000000  90.000000

Effective grid spacing dv^(1/3) = 0.1848

     iter     time        total  log10-change:
                         energy   eigst   dens
iter:   1 19:39:05   -23.179152   -5.75
iter:   2 19:39:08   -23.192611   -5.60  -2.81
iter:   3 19:39:10   -23.182518c  -6.07  -2.45
iter:   4 19:39:12   -23.176861c  -6.76  -2.63
iter:   5 19:39:14   -23.176845c  -7.44c -3.96
iter:   6 19:39:16   -23.176844c  -7.87c -4.21c

Converged after 6 iterations.

Dipole moment: (-0.000000, 0.023036, -0.000168) |e|*Ang

Energy contributions relative to reference atoms: (reference = -79534.988958)

Kinetic:        +23.877511
Potential:      -20.848498
External:        +0.000000
XC:             -25.629870
Entropy (-ST):   -0.004295
Local:           -0.573838
SIC:             +0.000000
--------------------------
Free energy:    -23.178991
Extrapolated:   -23.176844

Showing only first 2 kpts
 Kpt  Band  Eigenvalues  Occupancy
  0    61     -2.14987    2.00000
  0    62     -1.62625    2.00000
  0    63     -1.07771    0.39423
  0    64     -0.58621    0.00000

  1    61     -1.79608    2.00000
  1    62     -1.27584    2.00000
  1    63     -0.73115    0.00000
  1    64     -0.24987    0.00000


Fermi level: -1.09175

No gap

Forces in eV/Ang:
  0 Na    0.00000   -0.03469    0.05052
  1 Na    0.00000    0.03595   -0.02020
  2 Na    0.00000   -0.00115   -0.02043
  3 Na    0.00000   -0.00016   -0.00892
  4 Na    0.00000   -0.00024   -0.00082
  5 Na    0.00000    0.00022    0.01419
  6 Na    0.00000   -0.00008   -0.00511
  7 Na    0.00000    0.00015   -0.00815
  8 Na    0.00000   -0.00036    0.00600
  9 Na    0.00000    0.00040   -0.00602
 10 Na    0.00000   -0.00022    0.00827
 11 Na    0.00000    0.00012    0.00538
 12 Na    0.00000   -0.00017   -0.01409
 13 Na    0.00000    0.00015    0.00096
 14 Na    0.00000    0.00020    0.00911
 15 Na    0.00000    0.00119    0.02049
 16 Na    0.00000   -0.03603    0.02008
 17 Na    0.00000    0.03473   -0.05065

System changes: positions 

Initializing position-dependent things.

Density initialized from wave functions
   .--------------.  
  /|              |  
 * |              |  
 | |              |  
 | |              |  
 | |              |  
 | |              |  
 | |              |  
 | |              |  
 | |              |  
 | |              |  
 | |              |  
 | |              |  
 | |              |  
 | |              |  
 | |              |  
 | |              |  
 | |              |  
 | |              |  
 | |      Na      |  
 | |              |  
 | |              |  
 |Na              |  
 | |              |  
 | |              |  
 | |     Na       |  
 |Na              |  
 | |              |  
 | |     Na       |  
 | Na             |  
 | |              |  
 | |              |  
 | |      Na      |  
 | |              |  
 | |              |  
 |Na              |  
 | |              |  
 | |     Na       |  
 |Na              |  
 | |              |  
 | |              |  
 | |     Na       |  
 | Na             |  
 | |              |  
 | |              |  
 | |      Na      |  
 | |              |  
 |Na              |  
 | |      Na      |  
 | |              |  
 | |              |  
 |Na              |  
 | |              |  
 | |              |  
 | Na    Na       |  
 | |              |  
 | |              |  
 | |              |  
 | |              |  
 | |              |  
 | |              |  
 | |              |  
 | |              |  
 | |              |  
 | |              |  
 | |              |  
 | |              |  
 | |              |  
 | |              |  
 | |              |  
 | |              |  
 | |              |  
 | |              |  
 | .--------------.  
 |/              /   
 *--------------*    

Positions:
   0 Na     0.000000   -0.079778   15.116067    ( 0.0000,  0.0000,  0.0000)
   1 Na     2.965040    1.293164   16.665654    ( 0.0000,  0.0000,  0.0000)
   2 Na    -0.000000    2.418360   18.376909    ( 0.0000,  0.0000,  0.0000)
   3 Na     2.965040   -0.000367   20.114772    ( 0.0000,  0.0000,  0.0000)
   4 Na     0.000000    1.209862   21.845300    ( 0.0000,  0.0000,  0.0000)
   5 Na     2.965040    2.421439   23.591014    ( 0.0000,  0.0000,  0.0000)
   6 Na    -0.000000   -0.000179   25.258748    ( 0.0000,  0.0000,  0.0000)
   7 Na     2.965040    1.210816   26.965246    ( 0.0000,  0.0000,  0.0000)
   8 Na    -0.000000    2.420108   28.709517    ( 0.0000,  0.0000,  0.0000)
   9 Na     2.965040    3.632352   30.392062    ( 0.0000,  0.0000,  0.0000)
  10 Na     0.000000    1.209955   32.136516    ( 0.0000,  0.0000,  0.0000)
  11 Na     2.965040    2.421201   33.843511    ( 0.0000,  0.0000,  0.0000)
  12 Na     0.000000   -0.000384   35.511026    ( 0.0000,  0.0000,  0.0000)
  13 Na     2.965040    1.210873   37.256759    ( 0.0000,  0.0000,  0.0000)
  14 Na     0.000000    2.421406   38.987370    ( 0.0000,  0.0000,  0.0000)
  15 Na     2.965040    0.002670   40.724914    ( 0.0000,  0.0000,  0.0000)
  16 Na     0.000000    1.127591   42.435834    ( 0.0000,  0.0000,  0.0000)
  17 Na     2.965040    2.500807   43.985450    ( 0.0000,  0.0000,  0.0000)

Unit cell:
           periodic     x           y           z      points  spacing
  1. axis:    yes    5.930080    0.000000    0.000000    32     0.1853
  2. axis:    yes    0.000000    3.631418    0.000000    20     0.1816
  3. axis:    no     0.000000    0.000000   59.101734   315     0.1876

  Lengths:   5.930080   3.631418  59.101734
  Angles:   90.000000  90.000000  90.000000

Effective grid spacing dv^(1/3) = 0.1848

     iter     time        total  log10-change:
                         energy   eigst   dens
iter:   1 19:39:21   -30.471725   -2.03
iter:   2 19:39:24   -42.547916   -1.07  -1.13
iter:   3 19:39:26   -23.951069   -1.46  -0.92
iter:   4 19:39:28   -23.605563   -2.75  -1.65
iter:   5 19:39:30   -23.551963   -3.54  -1.76
iter:   6 19:39:32   -23.228493   -3.75  -1.83
iter:   7 19:39:35   -23.200872   -4.34  -2.23
iter:   8 19:39:37   -23.195415c  -4.67  -2.42
iter:   9 19:39:39   -23.197090c  -4.95  -2.57
iter:  10 19:39:41   -23.201209c  -5.01  -2.50
iter:  11 19:39:43   -23.191817c  -5.53  -2.46
iter:  12 19:39:45   -23.190435c  -5.85  -2.78
iter:  13 19:39:48   -23.190475c  -5.81  -2.92
iter:  14 19:39:50   -23.190526c  -5.77  -3.01
iter:  15 19:39:52   -23.190801c  -5.95  -3.15
iter:  16 19:39:54   -23.190581c  -5.85  -3.09
iter:  17 19:39:56   -23.192770c  -6.40  -3.31
iter:  18 19:39:59   -23.190432c  -6.46  -2.80
iter:  19 19:40:01   -23.190417c  -6.81  -3.56
iter:  20 19:40:03   -23.190431c  -6.90  -3.67
iter:  21 19:40:05   -23.190408c  -7.35  -3.75
iter:  22 19:40:07   -23.190412c  -7.24  -3.75
iter:  23 19:40:10   -23.190402c  -7.36  -3.97
iter:  24 19:40:12   -23.190406c  -8.01c -4.13c

Converged after 24 iterations.

Dipole moment: (-0.000000, 0.636016, 0.000516) |e|*Ang

Energy contributions relative to reference atoms: (reference = -79534.988958)

Kinetic:        +24.634905
Potential:      -21.418833
External:        +0.000000
XC:             -25.832234
Entropy (-ST):   -0.004032
Local:           -0.572227
SIC:             +0.000000
--------------------------
Free energy:    -23.192422
Extrapolated:   -23.190406

Showing only first 2 kpts
 Kpt  Band  Eigenvalues  Occupancy
  0    61     -2.13517    2.00000
  0    62     -1.60570    2.00000
  0    63     -1.05207    0.04339
  0    64     -0.58466    0.00000

  1    61     -1.78172    2.00000
  1    62     -1.25569    2.00000
  1    63     -0.70605    0.00000
  1    64     -0.24831    0.00000


Fermi level: -1.09016

No gap

Forces in eV/Ang:
  0 Na    0.00000   -0.01600   -0.01177
  1 Na    0.00000    0.02464   -0.00352
  2 Na    0.00000   -0.01334    0.05092
  3 Na    0.00000    0.00013   -0.00919
  4 Na    0.00000    0.00433   -0.01045
  5 Na    0.00000    0.00159   -0.02225
  6 Na    0.00000    0.00011    0.00435
  7 Na    0.00000   -0.00108    0.01262
  8 Na    0.00000   -0.00280   -0.00337
  9 Na    0.00000    0.00279    0.00131
 10 Na    0.00000    0.00104   -0.01267
 11 Na    0.00000   -0.00007   -0.00580
 12 Na    0.00000   -0.00154    0.02134
 13 Na    0.00000   -0.00439    0.00961
 14 Na    0.00000   -0.00011    0.00912
 15 Na    0.00000    0.01332   -0.04998
 16 Na    0.00000   -0.02464    0.00442
 17 Na    0.00000    0.01597    0.01213

System changes: positions 

Initializing position-dependent things.

Density initialized from wave functions
   .--------------.  
  /|              |  
 * |              |  
 | |              |  
 | |              |  
 | |              |  
 | |              |  
 | |              |  
 | |              |  
 | |              |  
 | |              |  
 | |              |  
 | |              |  
 | |              |  
 | |              |  
 | |              |  
 | |              |  
 | |              |  
 | |              |  
 | |      Na      |  
 | |              |  
 | |              |  
 |Na              |  
 | |              |  
 | |              |  
 | |     Na       |  
 |Na              |  
 | |              |  
 | |     Na       |  
 | Na             |  
 | |              |  
 | |              |  
 | |      Na      |  
 | |              |  
 | |              |  
 |Na              |  
 | |              |  
 | |     Na       |  
 |Na              |  
 | |              |  
 | |              |  
 | |     Na       |  
 | Na             |  
 | |              |  
 | |              |  
 | |      Na      |  
 | |              |  
 |Na              |  
 | |      Na      |  
 | |              |  
 | |              |  
 |Na              |  
 | |              |  
 | |              |  
 | Na    Na       |  
 | |              |  
 | |              |  
 | |              |  
 | |              |  
 | |              |  
 | |              |  
 | |              |  
 | |              |  
 | |              |  
 | |              |  
 | |              |  
 | |              |  
 | |              |  
 | |              |  
 | |              |  
 | |              |  
 | |              |  
 | |              |  
 | .--------------.  
 |/              /   
 *--------------*    

Positions:
   0 Na     0.000000   -0.075128   15.108839    ( 0.0000,  0.0000,  0.0000)
   1 Na     2.965040    1.288451   16.668416    ( 0.0000,  0.0000,  0.0000)
   2 Na    -0.000000    2.418337   18.380438    ( 0.0000,  0.0000,  0.0000)
   3 Na     2.965040   -0.000343   20.115930    ( 0.0000,  0.0000,  0.0000)
   4 Na     0.000000    1.209959   21.845303    ( 0.0000,  0.0000,  0.0000)
   5 Na     2.965040    2.421430   23.588819    ( 0.0000,  0.0000,  0.0000)
   6 Na     0.000000   -0.000167   25.259589    ( 0.0000,  0.0000,  0.0000)
   7 Na     2.965040    1.210780   26.966469    ( 0.0000,  0.0000,  0.0000)
   8 Na    -0.000000    2.420122   28.708556    ( 0.0000,  0.0000,  0.0000)
   9 Na     2.965040    3.632333   30.393009    ( 0.0000,  0.0000,  0.0000)
  10 Na     0.000000    1.210001   32.135300    ( 0.0000,  0.0000,  0.0000)
  11 Na     2.965040    2.421185   33.842622    ( 0.0000,  0.0000,  0.0000)
  12 Na     0.000000   -0.000381   35.513188    ( 0.0000,  0.0000,  0.0000)
  13 Na     2.965040    1.210789   37.256726    ( 0.0000,  0.0000,  0.0000)
  14 Na     0.000000    2.421376   38.986187    ( 0.0000,  0.0000,  0.0000)
  15 Na     2.965040    0.002688   40.721393    ( 0.0000,  0.0000,  0.0000)
  16 Na     0.000000    1.132316   42.433098    ( 0.0000,  0.0000,  0.0000)
  17 Na     2.965040    2.496151   43.992695    ( 0.0000,  0.0000,  0.0000)

Unit cell:
           periodic     x           y           z      points  spacing
  1. axis:    yes    5.930080    0.000000    0.000000    32     0.1853
  2. axis:    yes    0.000000    3.631418    0.000000    20     0.1816
  3. axis:    no     0.000000    0.000000   59.101734   315     0.1876

  Lengths:   5.930080   3.631418  59.101734
  Angles:   90.000000  90.000000  90.000000

Effective grid spacing dv^(1/3) = 0.1848

     iter     time        total  log10-change:
                         energy   eigst   dens
iter:   1 19:40:17   -23.358134   -4.18
iter:   2 19:40:19   -27.274325   -3.59  -1.94
iter:   3 19:40:21   -23.281380   -3.93  -1.23
iter:   4 19:40:23   -23.192773   -4.86  -2.07
iter:   5 19:40:26   -23.191004   -5.43  -2.89
iter:   6 19:40:28   -23.190854c  -6.02  -3.26
iter:   7 19:40:30   -23.190651c  -6.01  -3.37
iter:   8 19:40:32   -23.190644c  -6.61  -3.84
iter:   9 19:40:34   -23.190636c  -7.05  -3.88
iter:  10 19:40:36   -23.190638c  -7.42c -4.06c

Converged after 10 iterations.

Dipole moment: (-0.000000, 0.598876, 0.000383) |e|*Ang

Energy contributions relative to reference atoms: (reference = -79534.988958)

Kinetic:        +24.517666
Potential:      -21.326076
External:        +0.000000
XC:             -25.811350
Entropy (-ST):   -0.004063
Local:           -0.568847
SIC:             +0.000000
--------------------------
Free energy:    -23.192670
Extrapolated:   -23.190638

Showing only first 2 kpts
 Kpt  Band  Eigenvalues  Occupancy
  0    61     -2.13837    2.00000
  0    62     -1.60913    2.00000
  0    63     -1.05576    0.04986
  0    64     -0.58710    0.00000

  1    61     -1.78490    2.00000
  1    62     -1.25909    2.00000
  1    63     -0.70971    0.00000
  1    64     -0.25076    0.00000


Fermi level: -1.09243

No gap

Forces in eV/Ang:
  0 Na    0.00000   -0.01823   -0.01062
  1 Na    0.00000    0.02588   -0.00309
  2 Na    0.00000   -0.01175    0.04408
  3 Na    0.00000    0.00044   -0.00858
  4 Na    0.00000    0.00379   -0.01013
  5 Na    0.00000    0.00146   -0.01953
  6 Na    0.00000    0.00010    0.00536
  7 Na    0.00000   -0.00091    0.01136
  8 Na    0.00000   -0.00251   -0.00506
  9 Na    0.00000    0.00247    0.00309
 10 Na    0.00000    0.00080   -0.01088
 11 Na    0.00000   -0.00004   -0.00570
 12 Na    0.00000   -0.00137    0.02013
 13 Na    0.00000   -0.00378    0.01120
 14 Na    0.00000   -0.00041    0.00904
 15 Na    0.00000    0.01179   -0.04481
 16 Na    0.00000   -0.02603    0.00345
 17 Na    0.00000    0.01822    0.00926

System changes: positions 

Initializing position-dependent things.

Density initialized from wave functions
   .--------------.  
  /|              |  
 * |              |  
 | |              |  
 | |              |  
 | |              |  
 | |              |  
 | |              |  
 | |              |  
 | |              |  
 | |              |  
 | |              |  
 | |              |  
 | |              |  
 | |              |  
 | |              |  
 | |              |  
 | |              |  
 | |              |  
 | |      Na      |  
 | |              |  
 | |              |  
 |Na              |  
 | |              |  
 | |              |  
 | |     Na       |  
 |Na              |  
 | |              |  
 | |     Na       |  
 | Na             |  
 | |              |  
 | |              |  
 | |      Na      |  
 | |              |  
 | |              |  
 |Na              |  
 | |              |  
 | |     Na       |  
 |Na              |  
 | |              |  
 | |              |  
 | |     Na       |  
 | Na             |  
 | |              |  
 | |              |  
 | |      Na      |  
 | |              |  
 |Na              |  
 | |      Na      |  
 | |              |  
 | |              |  
 |Na              |  
 | |              |  
 | |              |  
 | Na    Na       |  
 | |              |  
 | |              |  
 | |              |  
 | |              |  
 | |              |  
 | |              |  
 | |              |  
 | |              |  
 | |              |  
 | |              |  
 | |              |  
 | |              |  
 | |              |  
 | |              |  
 | |              |  
 | |              |  
 | |              |  
 | |              |  
 | .--------------.  
 |/              /   
 *--------------*    

Positions:
   0 Na     0.000000   -0.070416   15.100441    ( 0.0000,  0.0000,  0.0000)
   1 Na     2.965040    1.283871   16.671420    ( 0.0000,  0.0000,  0.0000)
   2 Na    -0.000000    2.417992   18.385568    ( 0.0000,  0.0000,  0.0000)
   3 Na     2.965040   -0.000303   20.117018    ( 0.0000,  0.0000,  0.0000)
   4 Na     0.000000    1.210172   21.845048    ( 0.0000,  0.0000,  0.0000)
   5 Na     2.965040    2.421459   23.585891    ( 0.0000,  0.0000,  0.0000)
   6 Na     0.000000   -0.000151   25.260731    ( 0.0000,  0.0000,  0.0000)
   7 Na     2.965040    1.210716   26.968090    ( 0.0000,  0.0000,  0.0000)
   8 Na    -0.000000    2.420070   28.707279    ( 0.0000,  0.0000,  0.0000)
   9 Na     2.965040    3.632376   30.394222    ( 0.0000,  0.0000,  0.0000)
  10 Na     0.000000    1.210073   32.133719    ( 0.0000,  0.0000,  0.0000)
  11 Na     2.965040    2.421166   33.841429    ( 0.0000,  0.0000,  0.0000)
  12 Na     0.000000   -0.000415   35.516098    ( 0.0000,  0.0000,  0.0000)
  13 Na     2.965040    1.210590   37.256985    ( 0.0000,  0.0000,  0.0000)
  14 Na    -0.000000    2.421331   38.985086    ( 0.0000,  0.0000,  0.0000)
  15 Na     2.965040    0.003027   40.716248    ( 0.0000,  0.0000,  0.0000)
  16 Na     0.000000    1.136905   42.430129    ( 0.0000,  0.0000,  0.0000)
  17 Na     2.965040    2.491432   44.001059    ( 0.0000,  0.0000,  0.0000)

Unit cell:
           periodic     x           y           z      points  spacing
  1. axis:    yes    5.930080    0.000000    0.000000    32     0.1853
  2. axis:    yes    0.000000    3.631418    0.000000    20     0.1816
  3. axis:    no     0.000000    0.000000   59.101734   315     0.1876

  Lengths:   5.930080   3.631418  59.101734
  Angles:   90.000000  90.000000  90.000000

Effective grid spacing dv^(1/3) = 0.1848

     iter     time        total  log10-change:
                         energy   eigst   dens
iter:   1 19:40:42   -23.253816   -4.06
iter:   2 19:40:44   -23.525081   -4.18  -2.11
iter:   3 19:40:46   -23.293663   -4.69  -1.80
iter:   4 19:40:48   -23.192622   -5.39  -2.03
iter:   5 19:40:50   -23.191364   -5.93  -2.93
iter:   6 19:40:52   -23.191293c  -6.21  -3.17
iter:   7 19:40:55   -23.190932c  -6.31  -3.26
iter:   8 19:40:57   -23.190909c  -6.84  -3.77
iter:   9 19:40:59   -23.190908c  -7.32  -3.93
iter:  10 19:41:01   -23.190910c  -7.69c -3.93
iter:  11 19:41:03   -23.190905c  -7.94c -4.05c

Converged after 11 iterations.

Dipole moment: (-0.000000, 0.558863, 0.000265) |e|*Ang

Energy contributions relative to reference atoms: (reference = -79534.988958)

Kinetic:        +24.468859
Potential:      -21.291818
External:        +0.000000
XC:             -25.797456
Entropy (-ST):   -0.004114
Local:           -0.568433
SIC:             +0.000000
--------------------------
Free energy:    -23.192962
Extrapolated:   -23.190905

Showing only first 2 kpts
 Kpt  Band  Eigenvalues  Occupancy
  0    61     -2.13837    2.00000
  0    62     -1.60943    2.00000
  0    63     -1.05655    0.06161
  0    64     -0.58543    0.00000

  1    61     -1.78487    2.00000
  1    62     -1.25937    2.00000
  1    63     -0.71047    0.00000
  1    64     -0.24908    0.00000


Fermi level: -1.09104

No gap

Forces in eV/Ang:
  0 Na    0.00000   -0.02001   -0.00182
  1 Na    0.00000    0.02669   -0.00371
  2 Na    0.00000   -0.01036    0.03778
  3 Na    0.00000    0.00063   -0.00947
  4 Na    0.00000    0.00307   -0.00957
  5 Na    0.00000    0.00130   -0.01610
  6 Na    0.00000    0.00011    0.00412
  7 Na    0.00000   -0.00072    0.00909
  8 Na    0.00000   -0.00220   -0.00249
  9 Na    0.00000    0.00220    0.00245
 10 Na    0.00000    0.00068   -0.00945
 11 Na    0.00000   -0.00007   -0.00528
 12 Na    0.00000   -0.00128    0.01531
 13 Na    0.00000   -0.00311    0.00870
 14 Na    0.00000   -0.00061    0.00878
 15 Na    0.00000    0.01040   -0.03722
 16 Na    0.00000   -0.02668    0.00420
 17 Na    0.00000    0.01991    0.00271

System changes: positions 

Initializing position-dependent things.

Density initialized from wave functions
   .--------------.  
  /|              |  
 * |              |  
 | |              |  
 | |              |  
 | |              |  
 | |              |  
 | |              |  
 | |              |  
 | |              |  
 | |              |  
 | |              |  
 | |              |  
 | |              |  
 | |              |  
 | |              |  
 | |              |  
 | |              |  
 | |              |  
 | |      Na      |  
 | |              |  
 | |              |  
 |Na              |  
 | |              |  
 | |              |  
 | |     Na       |  
 |Na              |  
 | |              |  
 | |     Na       |  
 | Na             |  
 | |              |  
 | |              |  
 | |      Na      |  
 | |              |  
 | |              |  
 |Na              |  
 | |              |  
 | |     Na       |  
 |Na              |  
 | |              |  
 | |              |  
 | |     Na       |  
 | Na             |  
 | |              |  
 | |              |  
 | |      Na      |  
 | |              |  
 |Na              |  
 | |      Na      |  
 | |              |  
 | |              |  
 |Na              |  
 | |              |  
 | |              |  
 | Na    Na       |  
 | |              |  
 | |              |  
 | |              |  
 | |              |  
 | |              |  
 | |              |  
 | |              |  
 | |              |  
 | |              |  
 | |              |  
 | |              |  
 | |              |  
 | |              |  
 | |              |  
 | |              |  
 | |              |  
 | |              |  
 | |              |  
 | .--------------.  
 |/              /   
 *--------------*    

Positions:
   0 Na     0.000000   -0.070941   15.098682    ( 0.0000,  0.0000,  0.0000)
   1 Na     2.965040    1.284934   16.671578    ( 0.0000,  0.0000,  0.0000)
   2 Na    -0.000000    2.417124   18.389312    ( 0.0000,  0.0000,  0.0000)
   3 Na     2.965040   -0.000274   20.116612    ( 0.0000,  0.0000,  0.0000)
   4 Na     0.000000    1.210466   21.844379    ( 0.0000,  0.0000,  0.0000)
   5 Na     2.965040    2.421563   23.584303    ( 0.0000,  0.0000,  0.0000)
   6 Na     0.000000   -0.000142   25.261318    ( 0.0000,  0.0000,  0.0000)
   7 Na     2.965040    1.210644   26.968927    ( 0.0000,  0.0000,  0.0000)
   8 Na    -0.000000    2.419891   28.706724    ( 0.0000,  0.0000,  0.0000)
   9 Na     2.965040    3.632552   30.394687    ( 0.0000,  0.0000,  0.0000)
  10 Na     0.000000    1.210142   32.132930    ( 0.0000,  0.0000,  0.0000)
  11 Na     2.965040    2.421161   33.840782    ( 0.0000,  0.0000,  0.0000)
  12 Na     0.000000   -0.000515   35.517643    ( 0.0000,  0.0000,  0.0000)
  13 Na     2.965040    1.210295   37.257639    ( 0.0000,  0.0000,  0.0000)
  14 Na    -0.000000    2.421303   38.985486    ( 0.0000,  0.0000,  0.0000)
  15 Na     2.965040    0.003896   40.712530    ( 0.0000,  0.0000,  0.0000)
  16 Na     0.000000    1.135841   42.430013    ( 0.0000,  0.0000,  0.0000)
  17 Na     2.965040    2.491951   44.002802    ( 0.0000,  0.0000,  0.0000)

Unit cell:
           periodic     x           y           z      points  spacing
  1. axis:    yes    5.930080    0.000000    0.000000    32     0.1853
  2. axis:    yes    0.000000    3.631418    0.000000    20     0.1816
  3. axis:    no     0.000000    0.000000   59.101734   315     0.1876

  Lengths:   5.930080   3.631418  59.101734
  Angles:   90.000000  90.000000  90.000000

Effective grid spacing dv^(1/3) = 0.1848

     iter     time        total  log10-change:
                         energy   eigst   dens
iter:   1 19:41:08   -23.252202   -4.75
iter:   2 19:41:11   -25.127405   -4.01  -2.13
iter:   3 19:41:13   -23.195294   -4.44  -1.38
iter:   4 19:41:15   -23.191603   -5.35  -2.72
iter:   5 19:41:17   -23.191497c  -5.96  -3.31
iter:   6 19:41:19   -23.191432c  -6.42  -3.46
iter:   7 19:41:22   -23.191377c  -6.53  -3.62
iter:   8 19:41:24   -23.191376c  -7.09  -4.01c
iter:   9 19:41:26   -23.191400c  -7.57c -4.05c

Converged after 9 iterations.

Dipole moment: (-0.000000, 0.556139, 0.001114) |e|*Ang

Energy contributions relative to reference atoms: (reference = -79534.988958)

Kinetic:        +24.456071
Potential:      -21.282284
External:        +0.000000
XC:             -25.791932
Entropy (-ST):   -0.004106
Local:           -0.571202
SIC:             +0.000000
--------------------------
Free energy:    -23.193453
Extrapolated:   -23.191400

Showing only first 2 kpts
 Kpt  Band  Eigenvalues  Occupancy
  0    61     -2.14034    2.00000
  0    62     -1.61111    2.00000
  0    63     -1.05825    0.06090
  0    64     -0.58779    0.00000

  1    61     -1.78683    2.00000
  1    62     -1.26104    2.00000
  1    63     -0.71217    0.00000
  1    64     -0.25145    0.00000


Fermi level: -1.09286

No gap

Forces in eV/Ang:
  0 Na    0.00000   -0.01832   -0.00354
  1 Na    0.00000    0.02434   -0.00535
  2 Na    0.00000   -0.01024    0.03541
  3 Na    0.00000    0.00097   -0.00685
  4 Na    0.00000    0.00243   -0.00901
  5 Na    0.00000    0.00127   -0.01638
  6 Na    0.00000    0.00018    0.00170
  7 Na    0.00000   -0.00064    0.00820
  8 Na    0.00000   -0.00200   -0.00559
  9 Na    0.00000    0.00199    0.00113
 10 Na    0.00000    0.00053   -0.00760
 11 Na    0.00000   -0.00013   -0.00500
 12 Na    0.00000   -0.00124    0.01437
 13 Na    0.00000   -0.00254    0.00791
 14 Na    0.00000   -0.00096    0.00693
 15 Na    0.00000    0.01035   -0.03478
 16 Na    0.00000   -0.02444    0.00701
 17 Na    0.00000    0.01831    0.00403

System changes: positions 

Initializing position-dependent things.

Density initialized from wave functions
   .--------------.  
  /|              |  
 * |              |  
 | |              |  
 | |              |  
 | |              |  
 | |              |  
 | |              |  
 | |              |  
 | |              |  
 | |              |  
 | |              |  
 | |              |  
 | |              |  
 | |              |  
 | |              |  
 | |              |  
 | |              |  
 | |              |  
 | |      Na      |  
 | |              |  
 | |              |  
 |Na              |  
 | |              |  
 | |              |  
 | |     Na       |  
 |Na              |  
 | |              |  
 | |     Na       |  
 | Na             |  
 | |              |  
 | |              |  
 | |      Na      |  
 | |              |  
 | |              |  
 |Na              |  
 | |              |  
 | |     Na       |  
 |Na              |  
 | |              |  
 | |              |  
 | |     Na       |  
 | |              |  
 | |              |  
 Na|              |  
 | |      Na      |  
 | |              |  
 |Na              |  
 | |              |  
 | |              |  
 | |     Na       |  
 |Na              |  
 | |              |  
 | |              |  
 | Na    Na       |  
 | |              |  
 | |              |  
 | |              |  
 | |              |  
 | |              |  
 | |              |  
 | |              |  
 | |              |  
 | |              |  
 | |              |  
 | |              |  
 | |              |  
 | |              |  
 | |              |  
 | |              |  
 | |              |  
 | |              |  
 | |              |  
 | .--------------.  
 |/              /   
 *--------------*    

Positions:
   0 Na     0.000000   -0.071704   15.049174    ( 0.0000,  0.0000,  0.0000)
   1 Na     2.965040    1.296002   16.679861    ( 0.0000,  0.0000,  0.0000)
   2 Na    -0.000000    2.400008   18.469526    ( 0.0000,  0.0000,  0.0000)
   3 Na     2.965040    0.000466   20.111549    ( 0.0000,  0.0000,  0.0000)
   4 Na     0.000000    1.216282   21.831283    ( 0.0000,  0.0000,  0.0000)
   5 Na     2.965040    2.423574   23.548503    ( 0.0000,  0.0000,  0.0000)
   6 Na     0.000000    0.000075   25.273963    ( 0.0000,  0.0000,  0.0000)
   7 Na     2.965040    1.209177   26.987704    ( 0.0000,  0.0000,  0.0000)
   8 Na    -0.000000    2.416453   28.693073    ( 0.0000,  0.0000,  0.0000)
   9 Na     2.965040    3.635916   30.405445    ( 0.0000,  0.0000,  0.0000)
  10 Na     0.000000    1.211554   32.115357    ( 0.0000,  0.0000,  0.0000)
  11 Na     2.965040    2.421009   33.826323    ( 0.0000,  0.0000,  0.0000)
  12 Na     0.000000   -0.002474   35.552244    ( 0.0000,  0.0000,  0.0000)
  13 Na     2.965040    1.204474   37.270323    ( 0.0000,  0.0000,  0.0000)
  14 Na    -0.000000    2.420575   38.990563    ( 0.0000,  0.0000,  0.0000)
  15 Na     2.965040    0.021028   40.632846    ( 0.0000,  0.0000,  0.0000)
  16 Na     0.000000    1.124757   42.422909    ( 0.0000,  0.0000,  0.0000)
  17 Na     2.965040    2.492620   44.051912    ( 0.0000,  0.0000,  0.0000)

Unit cell:
           periodic     x           y           z      points  spacing
  1. axis:    yes    5.930080    0.000000    0.000000    32     0.1853
  2. axis:    yes    0.000000    3.631418    0.000000    20     0.1816
  3. axis:    no     0.000000    0.000000   59.101734   315     0.1876

  Lengths:   5.930080   3.631418  59.101734
  Angles:   90.000000  90.000000  90.000000

Effective grid spacing dv^(1/3) = 0.1848

     iter     time        total  log10-change:
                         energy   eigst   dens
iter:   1 19:41:31   -26.906932   -2.08
iter:   2 19:41:33   -45.999643   -1.38  -1.22
iter:   3 19:41:35   -26.856463   -1.36  -1.00
iter:   4 19:41:38   -25.186707   -3.28  -1.27
iter:   5 19:41:40   -23.350832   -3.27  -1.41
iter:   6 19:41:42   -23.231493   -3.94  -1.95
iter:   7 19:41:44   -23.223075   -4.14  -2.17
iter:   8 19:41:46   -23.196271c  -4.30  -2.30
iter:   9 19:41:49   -23.190225c  -4.83  -2.56
iter:  10 19:41:51   -23.189472c  -5.26  -2.87
iter:  11 19:41:53   -23.189479c  -5.60  -2.94
iter:  12 19:41:55   -23.189058c  -5.91  -2.99
iter:  13 19:41:57   -23.189022c  -6.03  -3.12
iter:  14 19:41:59   -23.188938c  -6.02  -3.21
iter:  15 19:42:02   -23.188979c  -6.35  -3.36
iter:  16 19:42:04   -23.188943c  -6.79  -3.38
iter:  17 19:42:06   -23.188956c  -6.91  -3.44
iter:  18 19:42:08   -23.188895c  -7.05  -3.53
iter:  19 19:42:10   -23.188859c  -7.15  -3.64
iter:  20 19:42:13   -23.188854c  -7.47c -3.92
iter:  21 19:42:15   -23.188855c  -7.75c -4.08c

Converged after 21 iterations.

Dipole moment: (-0.000000, 0.404735, 0.000256) |e|*Ang

Energy contributions relative to reference atoms: (reference = -79534.988958)

Kinetic:        +24.080424
Potential:      -21.003039
External:        +0.000000
XC:             -25.693240
Entropy (-ST):   -0.004018
Local:           -0.570991
SIC:             +0.000000
--------------------------
Free energy:    -23.190863
Extrapolated:   -23.188855

Showing only first 2 kpts
 Kpt  Band  Eigenvalues  Occupancy
  0    61     -2.15193    2.00000
  0    62     -1.61985    2.00000
  0    63     -1.07070    0.15135
  0    64     -0.58951    0.00000

  1    61     -1.79812    2.00000
  1    62     -1.26966    2.00000
  1    63     -0.72460    0.00000
  1    64     -0.25317    0.00000


Fermi level: -1.09573

No gap

Forces in eV/Ang:
  0 Na    0.00000   -0.02484    0.04662
  1 Na    0.00000    0.02437   -0.00939
  2 Na    0.00000   -0.00074   -0.04059
  3 Na    0.00000    0.00679   -0.00559
  4 Na    0.00000   -0.00786    0.01860
  5 Na    0.00000    0.00041    0.01454
  6 Na    0.00000    0.00080   -0.01110
  7 Na    0.00000    0.00124   -0.01411
  8 Na    0.00000    0.00107    0.00710
  9 Na    0.00000   -0.00119   -0.00637
 10 Na    0.00000   -0.00130    0.01187
 11 Na    0.00000   -0.00056    0.01244
 12 Na    0.00000   -0.00059   -0.01343
 13 Na    0.00000    0.00788   -0.01981
 14 Na    0.00000   -0.00676    0.00457
 15 Na    0.00000    0.00080    0.03998
 16 Na    0.00000   -0.02447    0.00883
 17 Na    0.00000    0.02482   -0.04433

System changes: positions 

Initializing position-dependent things.

Density initialized from wave functions
   .--------------.  
  /|              |  
 * |              |  
 | |              |  
 | |              |  
 | |              |  
 | |              |  
 | |              |  
 | |              |  
 | |              |  
 | |              |  
 | |              |  
 | |              |  
 | |              |  
 | |              |  
 | |              |  
 | |              |  
 | |              |  
 | |              |  
 | |      Na      |  
 | |              |  
 | |              |  
 |Na              |  
 | |              |  
 | |              |  
 | |     Na       |  
 |Na              |  
 | |              |  
 | |     Na       |  
 | Na             |  
 | |              |  
 | |              |  
 | |      Na      |  
 | |              |  
 | |              |  
 |Na              |  
 | |              |  
 | |     Na       |  
 |Na              |  
 | |              |  
 | |              |  
 | |     Na       |  
 | Na             |  
 | |              |  
 | |              |  
 | |      Na      |  
 | |              |  
 |Na              |  
 | |              |  
 | |              |  
 | |     Na       |  
 |Na              |  
 | |              |  
 | |              |  
 | Na    Na       |  
 | |              |  
 | |              |  
 | |              |  
 | |              |  
 | |              |  
 | |              |  
 | |              |  
 | |              |  
 | |              |  
 | |              |  
 | |              |  
 | |              |  
 | |              |  
 | |              |  
 | |              |  
 | |              |  
 | |              |  
 | |              |  
 | .--------------.  
 |/              /   
 *--------------*    

Positions:
   0 Na     0.000000   -0.083868   15.088717    ( 0.0000,  0.0000,  0.0000)
   1 Na     2.965040    1.304177   16.668920    ( 0.0000,  0.0000,  0.0000)
   2 Na    -0.000000    2.406926   18.427512    ( 0.0000,  0.0000,  0.0000)
   3 Na     2.965040    0.000143   20.110571    ( 0.0000,  0.0000,  0.0000)
   4 Na     0.000000    1.213619   21.836698    ( 0.0000,  0.0000,  0.0000)
   5 Na     2.965040    2.422790   23.568842    ( 0.0000,  0.0000,  0.0000)
   6 Na     0.000000   -0.000038   25.266367    ( 0.0000,  0.0000,  0.0000)
   7 Na     2.965040    1.209869   26.976756    ( 0.0000,  0.0000,  0.0000)
   8 Na    -0.000000    2.417810   28.701106    ( 0.0000,  0.0000,  0.0000)
   9 Na     2.965040    3.634605   30.398374    ( 0.0000,  0.0000,  0.0000)
  10 Na     0.000000    1.210855   32.125828    ( 0.0000,  0.0000,  0.0000)
  11 Na     2.965040    2.421107   33.834655    ( 0.0000,  0.0000,  0.0000)
  12 Na     0.000000   -0.001697   35.532391    ( 0.0000,  0.0000,  0.0000)
  13 Na     2.965040    1.207101   37.265097    ( 0.0000,  0.0000,  0.0000)
  14 Na    -0.000000    2.420907   38.991634    ( 0.0000,  0.0000,  0.0000)
  15 Na     2.965040    0.014120   40.674664    ( 0.0000,  0.0000,  0.0000)
  16 Na     0.000000    1.116554   42.433375    ( 0.0000,  0.0000,  0.0000)
  17 Na     2.965040    2.504844   44.012511    ( 0.0000,  0.0000,  0.0000)

Unit cell:
           periodic     x           y           z      points  spacing
  1. axis:    yes    5.930080    0.000000    0.000000    32     0.1853
  2. axis:    yes    0.000000    3.631418    0.000000    20     0.1816
  3. axis:    no     0.000000    0.000000   59.101734   315     0.1876

  Lengths:   5.930080   3.631418  59.101734
  Angles:   90.000000  90.000000  90.000000

Effective grid spacing dv^(1/3) = 0.1848

     iter     time        total  log10-change:
                         energy   eigst   dens
iter:   1 19:42:20   -24.481618   -2.60
iter:   2 19:42:22   -27.328793   -2.60  -1.49
iter:   3 19:42:24   -24.281532   -3.10  -1.22
iter:   4 19:42:26   -23.283160   -4.13  -1.52
iter:   5 19:42:29   -23.208995   -4.36  -2.07
iter:   6 19:42:31   -23.200580   -5.02  -2.43
iter:   7 19:42:33   -23.196052c  -5.06  -2.59
iter:   8 19:42:35   -23.195066c  -5.27  -2.91
iter:   9 19:42:37   -23.195792c  -5.79  -3.09
iter:  10 19:42:40   -23.195574c  -6.22  -2.97
iter:  11 19:42:42   -23.194806c  -6.42  -3.01
iter:  12 19:42:44   -23.194746c  -6.51  -3.26
iter:  13 19:42:46   -23.194732c  -6.62  -3.39
iter:  14 19:42:48   -23.194712c  -6.62  -3.48
iter:  15 19:42:50   -23.194723c  -6.89  -3.61
iter:  16 19:42:53   -23.194697c  -7.20  -3.61
iter:  17 19:42:55   -23.194733c  -7.47c -3.75
iter:  18 19:42:57   -23.194693c  -7.75c -3.73
iter:  19 19:42:59   -23.194693c  -7.73c -3.92
iter:  20 19:43:01   -23.194692c  -7.89c -4.12c

Converged after 20 iterations.

Dipole moment: (-0.000000, 0.562281, -0.000539) |e|*Ang

Energy contributions relative to reference atoms: (reference = -79534.988958)

Kinetic:        +24.421931
Potential:      -21.267592
External:        +0.000000
XC:             -25.771072
Entropy (-ST):   -0.004110
Local:           -0.575904
SIC:             +0.000000
--------------------------
Free energy:    -23.196747
Extrapolated:   -23.194692

Showing only first 2 kpts
 Kpt  Band  Eigenvalues  Occupancy
  0    61     -2.14467    2.00000
  0    62     -1.61287    2.00000
  0    63     -1.06134    0.07413
  0    64     -0.58817    0.00000

  1    61     -1.79104    2.00000
  1    62     -1.26279    2.00000
  1    63     -0.71533    0.00000
  1    64     -0.25182    0.00000


Fermi level: -1.09392

No gap

Forces in eV/Ang:
  0 Na    0.00000   -0.01810    0.01722
  1 Na    0.00000    0.02173   -0.00365
  2 Na    0.00000   -0.00766    0.00179
  3 Na    0.00000    0.00388   -0.00576
  4 Na    0.00000   -0.00169    0.00589
  5 Na    0.00000    0.00112   -0.00386
  6 Na    0.00000    0.00054   -0.00406
  7 Na    0.00000    0.00015   -0.00063
  8 Na    0.00000   -0.00096    0.00405
  9 Na    0.00000    0.00086   -0.00253
 10 Na    0.00000   -0.00018   -0.00055
 11 Na    0.00000   -0.00035    0.00434
 12 Na    0.00000   -0.00124    0.00465
 13 Na    0.00000    0.00168   -0.00560
 14 Na    0.00000   -0.00381    0.00556
 15 Na    0.00000    0.00777   -0.00205
 16 Na    0.00000   -0.02182    0.00382
 17 Na    0.00000    0.01802   -0.01726

System changes: positions 

Initializing position-dependent things.

Density initialized from wave functions
   .--------------.  
  /|              |  
 * |              |  
 | |              |  
 | |              |  
 | |              |  
 | |              |  
 | |              |  
 | |              |  
 | |              |  
 | |              |  
 | |              |  
 | |              |  
 | |              |  
 | |              |  
 | |              |  
 | |              |  
 | |              |  
 | |              |  
 | |      Na      |  
 | |              |  
 | |              |  
 |Na              |  
 | |              |  
 | |              |  
 | |     Na       |  
 |Na              |  
 | |              |  
 | |     Na       |  
 | Na             |  
 | |              |  
 | |              |  
 | |      Na      |  
 | |              |  
 | |              |  
 |Na              |  
 | |              |  
 | |     Na       |  
 |Na              |  
 | |              |  
 | |              |  
 | |     Na       |  
 | Na             |  
 | |              |  
 | |              |  
 | |      Na      |  
 | |              |  
 |Na              |  
 | |              |  
 | |              |  
 | |     Na       |  
 |Na              |  
 | |              |  
 | |              |  
 | Na    Na       |  
 | |              |  
 | |              |  
 | |              |  
 | |              |  
 | |              |  
 | |              |  
 | |              |  
 | |              |  
 | |              |  
 | |              |  
 | |              |  
 | |              |  
 | |              |  
 | |              |  
 | |              |  
 | |              |  
 | |              |  
 | |              |  
 | .--------------.  
 |/              /   
 *--------------*    

Positions:
   0 Na     0.000000   -0.099940   15.108419    ( 0.0000,  0.0000,  0.0000)
   1 Na     2.965040    1.321607   16.660124    ( 0.0000,  0.0000,  0.0000)
   2 Na    -0.000000    2.405028   18.423905    ( 0.0000,  0.0000,  0.0000)
   3 Na     2.965040    0.000206   20.106141    ( 0.0000,  0.0000,  0.0000)
   4 Na     0.000000    1.213853   21.835494    ( 0.0000,  0.0000,  0.0000)
   5 Na     2.965040    2.423052   23.572467    ( 0.0000,  0.0000,  0.0000)
   6 Na     0.000000   -0.000044   25.264544    ( 0.0000,  0.0000,  0.0000)
   7 Na     2.965040    1.209837   26.974493    ( 0.0000,  0.0000,  0.0000)
   8 Na    -0.000000    2.417388   28.702920    ( 0.0000,  0.0000,  0.0000)
   9 Na     2.965040    3.635039   30.396042    ( 0.0000,  0.0000,  0.0000)
  10 Na     0.000000    1.210845   32.128224    ( 0.0000,  0.0000,  0.0000)
  11 Na     2.965040    2.421136   33.836310    ( 0.0000,  0.0000,  0.0000)
  12 Na     0.000000   -0.001935   35.528661    ( 0.0000,  0.0000,  0.0000)
  13 Na     2.965040    1.206820   37.266311    ( 0.0000,  0.0000,  0.0000)
  14 Na    -0.000000    2.420864   38.996196    ( 0.0000,  0.0000,  0.0000)
  15 Na     2.965040    0.016041   40.678347    ( 0.0000,  0.0000,  0.0000)
  16 Na     0.000000    1.099078   42.442293    ( 0.0000,  0.0000,  0.0000)
  17 Na     2.965040    2.520931   43.992720    ( 0.0000,  0.0000,  0.0000)

Unit cell:
           periodic     x           y           z      points  spacing
  1. axis:    yes    5.930080    0.000000    0.000000    32     0.1853
  2. axis:    yes    0.000000    3.631418    0.000000    20     0.1816
  3. axis:    no     0.000000    0.000000   59.101734   315     0.1876

  Lengths:   5.930080   3.631418  59.101734
  Angles:   90.000000  90.000000  90.000000

Effective grid spacing dv^(1/3) = 0.1848

     iter     time        total  log10-change:
                         energy   eigst   dens
iter:   1 19:43:06   -23.400804   -3.58
iter:   2 19:43:09   -24.263420   -3.69  -1.89
iter:   3 19:43:11   -23.628653   -4.18  -1.53
iter:   4 19:43:13   -23.200847   -4.87  -1.71
iter:   5 19:43:15   -23.197185   -5.57  -2.72
iter:   6 19:43:17   -23.196666c  -6.05  -3.02
iter:   7 19:43:20   -23.196430c  -6.03  -3.18
iter:   8 19:43:22   -23.196406c  -6.23  -3.50
iter:   9 19:43:24   -23.196560c  -6.82  -3.61
iter:  10 19:43:26   -23.196424c  -7.25  -3.34
iter:  11 19:43:28   -23.196444c  -7.23  -3.62
iter:  12 19:43:31   -23.196412c  -6.99  -3.56
iter:  13 19:43:33   -23.196411c  -7.27  -3.99
iter:  14 19:43:35   -23.196411c  -7.62c -4.07c

Converged after 14 iterations.

Dipole moment: (-0.000000, 0.665757, 0.000010) |e|*Ang

Energy contributions relative to reference atoms: (reference = -79534.988958)

Kinetic:        +24.527888
Potential:      -21.345586
External:        +0.000000
XC:             -25.801639
Entropy (-ST):   -0.004066
Local:           -0.575041
SIC:             +0.000000
--------------------------
Free energy:    -23.198444
Extrapolated:   -23.196411

Showing only first 2 kpts
 Kpt  Band  Eigenvalues  Occupancy
  0    61     -2.14340    2.00000
  0    62     -1.61019    2.00000
  0    63     -1.05786    0.04721
  0    64     -0.58893    0.00000

  1    61     -1.78981    2.00000
  1    62     -1.26017    2.00000
  1    63     -0.71196    0.00000
  1    64     -0.25258    0.00000


Fermi level: -1.09509

No gap

Forces in eV/Ang:
  0 Na    0.00000   -0.01281    0.00654
  1 Na    0.00000    0.01750    0.00052
  2 Na    0.00000   -0.00956    0.01102
  3 Na    0.00000    0.00457   -0.00754
  4 Na    0.00000   -0.00175    0.00554
  5 Na    0.00000    0.00117   -0.00562
  6 Na    0.00000    0.00062   -0.00219
  7 Na    0.00000    0.00014   -0.00139
  8 Na    0.00000   -0.00108    0.00073
  9 Na    0.00000    0.00095    0.00159
 10 Na    0.00000   -0.00016   -0.00069
 11 Na    0.00000   -0.00041    0.00172
 12 Na    0.00000   -0.00133    0.00640
 13 Na    0.00000    0.00176   -0.00544
 14 Na    0.00000   -0.00454    0.00742
 15 Na    0.00000    0.00967   -0.01164
 16 Na    0.00000   -0.01749   -0.00082
 17 Na    0.00000    0.01278   -0.00556

System changes: positions 

Initializing position-dependent things.

Density initialized from wave functions
   .--------------.  
  /|              |  
 * |              |  
 | |              |  
 | |              |  
 | |              |  
 | |              |  
 | |              |  
 | |              |  
 | |              |  
 | |              |  
 | |              |  
 | |              |  
 | |              |  
 | |              |  
 | |              |  
 | |              |  
 | |              |  
 | |              |  
 | |      Na      |  
 | |              |  
 | |              |  
 |Na              |  
 | |              |  
 | |              |  
 |Na     Na       |  
 | |              |  
 | |              |  
 | |     Na       |  
 | Na             |  
 | |              |  
 | |              |  
 | |      Na      |  
 | |              |  
 | |              |  
 |Na              |  
 | |              |  
 | |     Na       |  
 |Na              |  
 | |              |  
 | |              |  
 | |     Na       |  
 | |              |  
 | |              |  
 Na|              |  
 | |      Na      |  
 | |              |  
 |Na              |  
 | |              |  
 | |              |  
 | |     Na       |  
 |Na              |  
 | |              |  
 | |              |  
 | Na    Na       |  
 | |              |  
 | |              |  
 | |              |  
 | |              |  
 | |              |  
 | |              |  
 | |              |  
 | |              |  
 | |              |  
 | |              |  
 | |              |  
 | |              |  
 | |              |  
 | |              |  
 | |              |  
 | |              |  
 | |              |  
 | |              |  
 | .--------------.  
 |/              /   
 *--------------*    

Positions:
   0 Na     0.000000   -0.134780   15.138105    ( 0.0000,  0.0000,  0.0000)
   1 Na     2.965040    1.362072   16.643393    ( 0.0000,  0.0000,  0.0000)
   2 Na    -0.000000    2.396435   18.436836    ( 0.0000,  0.0000,  0.0000)
   3 Na     2.965040    0.000612   20.095182    ( 0.0000,  0.0000,  0.0000)
   4 Na     0.000000    1.215796   21.829665    ( 0.0000,  0.0000,  0.0000)
   5 Na     2.965040    2.424143   23.571075    ( 0.0000,  0.0000,  0.0000)
   6 Na     0.000000    0.000009   25.263845    ( 0.0000,  0.0000,  0.0000)
   7 Na     2.965040    1.209398   26.974343    ( 0.0000,  0.0000,  0.0000)
   8 Na    -0.000000    2.415593   28.703285    ( 0.0000,  0.0000,  0.0000)
   9 Na     2.965040    3.636838   30.393867    ( 0.0000,  0.0000,  0.0000)
  10 Na     0.000000    1.211179   32.128918    ( 0.0000,  0.0000,  0.0000)
  11 Na     2.965040    2.421153   33.836172    ( 0.0000,  0.0000,  0.0000)
  12 Na     0.000000   -0.002965   35.529537    ( 0.0000,  0.0000,  0.0000)
  13 Na     2.965040    1.204774   37.272045    ( 0.0000,  0.0000,  0.0000)
  14 Na    -0.000000    2.420503   39.007439    ( 0.0000,  0.0000,  0.0000)
  15 Na     2.965040    0.024689   40.665695    ( 0.0000,  0.0000,  0.0000)
  16 Na     0.000000    1.058513   42.459570    ( 0.0000,  0.0000,  0.0000)
  17 Na     2.965040    2.555782   43.962785    ( 0.0000,  0.0000,  0.0000)

Unit cell:
           periodic     x           y           z      points  spacing
  1. axis:    yes    5.930080    0.000000    0.000000    32     0.1853
  2. axis:    yes    0.000000    3.631418    0.000000    20     0.1816
  3. axis:    no     0.000000    0.000000   59.101734   315     0.1876

  Lengths:   5.930080   3.631418  59.101734
  Angles:   90.000000  90.000000  90.000000

Effective grid spacing dv^(1/3) = 0.1848

     iter     time        total  log10-change:
                         energy   eigst   dens
iter:   1 19:43:40   -23.470370   -3.14
iter:   2 19:43:42   -24.164791   -3.55  -1.81
iter:   3 19:43:45   -23.273351   -4.11  -1.55
iter:   4 19:43:47   -23.210429   -4.90  -2.09
iter:   5 19:43:49   -23.199080   -5.48  -2.52
iter:   6 19:43:51   -23.198593c  -5.80  -2.99
iter:   7 19:43:53   -23.198523c  -6.20  -3.14
iter:   8 19:43:55   -23.198598c  -6.49  -3.24
iter:   9 19:43:58   -23.199060c  -6.37  -3.23
iter:  10 19:44:00   -23.198935c  -6.71  -3.13
iter:  11 19:44:02   -23.198671c  -6.22  -3.18
iter:  12 19:44:04   -23.198675c  -6.61  -3.66
iter:  13 19:44:06   -23.198666c  -6.88  -3.76
iter:  14 19:44:09   -23.198661c  -6.99  -3.92
iter:  15 19:44:11   -23.198664c  -7.43c -4.14c

Converged after 15 iterations.

Dipole moment: (-0.000000, 0.834199, -0.000429) |e|*Ang

Energy contributions relative to reference atoms: (reference = -79534.988958)

Kinetic:        +24.678560
Potential:      -21.457876
External:        +0.000000
XC:             -25.843818
Entropy (-ST):   -0.003977
Local:           -0.573541
SIC:             +0.000000
--------------------------
Free energy:    -23.200653
Extrapolated:   -23.198664

Showing only first 2 kpts
 Kpt  Band  Eigenvalues  Occupancy
  0    61     -2.14409    2.00000
  0    62     -1.60715    2.00000
  0    63     -1.05406    0.02330
  0    64     -0.59171    0.00000

  1    61     -1.79052    2.00000
  1    62     -1.25724    2.00000
  1    63     -0.70838    0.00000
  1    64     -0.25536    0.00000


Fermi level: -1.09847

No gap

Forces in eV/Ang:
  0 Na    0.00000   -0.00402   -0.00240
  1 Na    0.00000    0.00991    0.00738
  2 Na    0.00000   -0.01170    0.01137
  3 Na    0.00000    0.00720   -0.00717
  4 Na    0.00000   -0.00393    0.01127
  5 Na    0.00000    0.00131   -0.00929
  6 Na    0.00000    0.00093   -0.00321
  7 Na    0.00000    0.00042   -0.00102
  8 Na    0.00000   -0.00082    0.00165
  9 Na    0.00000    0.00061    0.00141
 10 Na    0.00000   -0.00043   -0.00214
 11 Na    0.00000   -0.00061    0.00387
 12 Na    0.00000   -0.00158    0.01060
 13 Na    0.00000    0.00399   -0.01209
 14 Na    0.00000   -0.00717    0.00670
 15 Na    0.00000    0.01191   -0.01149
 16 Na    0.00000   -0.00990   -0.00744
 17 Na    0.00000    0.00390    0.00384

System changes: positions 

Initializing position-dependent things.

Density initialized from wave functions
   .--------------.  
  /|              |  
 * |              |  
 | |              |  
 | |              |  
 | |              |  
 | |              |  
 | |              |  
 | |              |  
 | |              |  
 | |              |  
 | |              |  
 | |              |  
 | |              |  
 | |              |  
 | |              |  
 | |              |  
 | |              |  
 | |              |  
 | |      Na      |  
 | |              |  
 | |              |  
 |Na              |  
 | |              |  
 | |              |  
 |Na     Na       |  
 | |              |  
 | |              |  
 | |     Na       |  
 | Na             |  
 | |              |  
 | |              |  
 | |      Na      |  
 | |              |  
 | |              |  
 |Na              |  
 | |              |  
 | |     Na       |  
 |Na              |  
 | |              |  
 | |              |  
 | |     Na       |  
 | |              |  
 | |              |  
 Na|              |  
 | |      Na      |  
 | |              |  
 |Na              |  
 | |              |  
 | |              |  
 | |     Na       |  
 |Na              |  
 | |              |  
 | |              |  
 | Na    Na       |  
 | |              |  
 | |              |  
 | |              |  
 | |              |  
 | |              |  
 | |              |  
 | |              |  
 | |              |  
 | |              |  
 | |              |  
 | |              |  
 | |              |  
 | |              |  
 | |              |  
 | |              |  
 | |              |  
 | |              |  
 | |              |  
 | .--------------.  
 |/              /   
 *--------------*    

Positions:
   0 Na     0.000000   -0.156904   15.150930    ( 0.0000,  0.0000,  0.0000)
   1 Na     2.965040    1.389066   16.633944    ( 0.0000,  0.0000,  0.0000)
   2 Na    -0.000000    2.388792   18.454651    ( 0.0000,  0.0000,  0.0000)
   3 Na     2.965040    0.001085   20.087563    ( 0.0000,  0.0000,  0.0000)
   4 Na     0.000000    1.217635   21.824657    ( 0.0000,  0.0000,  0.0000)
   5 Na     2.965040    2.425092   23.565801    ( 0.0000,  0.0000,  0.0000)
   6 Na     0.000000    0.000084   25.264851    ( 0.0000,  0.0000,  0.0000)
   7 Na     2.965040    1.208956   26.976451    ( 0.0000,  0.0000,  0.0000)
   8 Na    -0.000000    2.414042   28.701926    ( 0.0000,  0.0000,  0.0000)
   9 Na     2.965040    3.638379   30.393786    ( 0.0000,  0.0000,  0.0000)
  10 Na     0.000000    1.211548   32.127249    ( 0.0000,  0.0000,  0.0000)
  11 Na     2.965040    2.421135   33.834449    ( 0.0000,  0.0000,  0.0000)
  12 Na     0.000000   -0.003873   35.534366    ( 0.0000,  0.0000,  0.0000)
  13 Na     2.965040    1.202871   37.276925    ( 0.0000,  0.0000,  0.0000)
  14 Na    -0.000000    2.420061   39.015228    ( 0.0000,  0.0000,  0.0000)
  15 Na     2.965040    0.032372   40.648124    ( 0.0000,  0.0000,  0.0000)
  16 Na     0.000000    1.031453   42.469503    ( 0.0000,  0.0000,  0.0000)
  17 Na     2.965040    2.577898   43.949777    ( 0.0000,  0.0000,  0.0000)

Unit cell:
           periodic     x           y           z      points  spacing
  1. axis:    yes    5.930080    0.000000    0.000000    32     0.1853
  2. axis:    yes    0.000000    3.631418    0.000000    20     0.1816
  3. axis:    no     0.000000    0.000000   59.101734   315     0.1876

  Lengths:   5.930080   3.631418  59.101734
  Angles:   90.000000  90.000000  90.000000

Effective grid spacing dv^(1/3) = 0.1848

     iter     time        total  log10-change:
                         energy   eigst   dens
iter:   1 19:44:16   -23.234811   -3.45
iter:   2 19:44:18   -23.541650   -4.24  -2.26
iter:   3 19:44:20   -23.247617   -4.72  -1.78
iter:   4 19:44:22   -23.209254   -5.23  -2.17
iter:   5 19:44:25   -23.199719c  -5.71  -2.54
iter:   6 19:44:27   -23.199263c  -5.84  -3.01
iter:   7 19:44:29   -23.199142c  -6.30  -3.23
iter:   8 19:44:31   -23.199175c  -6.54  -3.37
iter:   9 19:44:33   -23.199995c  -6.90  -3.37
iter:  10 19:44:36   -23.199149c  -6.56  -3.02
iter:  11 19:44:38   -23.199149c  -6.87  -3.61
iter:  12 19:44:40   -23.199168c  -7.04  -3.68
iter:  13 19:44:42   -23.199153c  -7.15  -3.76
iter:  14 19:44:44   -23.199162c  -7.17  -3.93
iter:  15 19:44:47   -23.199164c  -7.65c -4.03c

Converged after 15 iterations.

Dipole moment: (-0.000000, 0.909433, -0.000690) |e|*Ang

Energy contributions relative to reference atoms: (reference = -79534.988958)

Kinetic:        +24.687479
Potential:      -21.459168
External:        +0.000000
XC:             -25.852153
Entropy (-ST):   -0.003942
Local:           -0.573351
SIC:             +0.000000
--------------------------
Free energy:    -23.201135
Extrapolated:   -23.199164

Showing only first 2 kpts
 Kpt  Band  Eigenvalues  Occupancy
  0    61     -2.14699    2.00000
  0    62     -1.60733    2.00000
  0    63     -1.05419    0.01690
  0    64     -0.59423    0.00000

  1    61     -1.79339    2.00000
  1    62     -1.25747    2.00000
  1    63     -0.70865    0.00000
  1    64     -0.25789    0.00000


Fermi level: -1.10184

No gap

Forces in eV/Ang:
  0 Na    0.00000    0.00303   -0.00533
  1 Na    0.00000    0.00224    0.00940
  2 Na    0.00000   -0.01185    0.00197
  3 Na    0.00000    0.00991   -0.00137
  4 Na    0.00000   -0.00703    0.01906
  5 Na    0.00000    0.00132   -0.00913
  6 Na    0.00000    0.00116   -0.00507
  7 Na    0.00000    0.00089   -0.00128
  8 Na    0.00000   -0.00017    0.00518
  9 Na    0.00000   -0.00011    0.00012
 10 Na    0.00000   -0.00088   -0.00226
 11 Na    0.00000   -0.00074    0.00641
 12 Na    0.00000   -0.00170    0.01119
 13 Na    0.00000    0.00711   -0.01883
 14 Na    0.00000   -0.00987    0.00119
 15 Na    0.00000    0.01210   -0.00287
 16 Na    0.00000   -0.00236   -0.01044
 17 Na    0.00000   -0.00324    0.00592

System changes: positions 

Initializing position-dependent things.

Density initialized from wave functions
   .--------------.  
  /|              |  
 * |              |  
 | |              |  
 | |              |  
 | |              |  
 | |              |  
 | |              |  
 | |              |  
 | |              |  
 | |              |  
 | |              |  
 | |              |  
 | |              |  
 | |              |  
 | |              |  
 | |              |  
 | |              |  
 | |              |  
 | |      Na      |  
 | |              |  
 | |              |  
 |Na              |  
 | |              |  
 | |              |  
 |Na     Na       |  
 | |              |  
 | |              |  
 | |     Na       |  
 | Na             |  
 | |              |  
 | |              |  
 | |      Na      |  
 | |              |  
 | |              |  
 |Na              |  
 | |              |  
 | |     Na       |  
 |Na              |  
 | |              |  
 | |              |  
 | |     Na       |  
 | |              |  
 | |              |  
 Na|              |  
 | |      Na      |  
 | |              |  
 |Na              |  
 | |              |  
 | |              |  
 | |     Na       |  
 |Na              |  
 | |              |  
 | |              |  
 | Na    Na       |  
 | |              |  
 | |              |  
 | |              |  
 | |              |  
 | |              |  
 | |              |  
 | |              |  
 | |              |  
 | |              |  
 | |              |  
 | |              |  
 | |              |  
 | |              |  
 | |              |  
 | |              |  
 | |              |  
 | |              |  
 | |              |  
 | .--------------.  
 |/              /   
 *--------------*    

Positions:
   0 Na     0.000000   -0.151730   15.143971    ( 0.0000,  0.0000,  0.0000)
   1 Na     2.965040    1.383640   16.636971    ( 0.0000,  0.0000,  0.0000)
   2 Na    -0.000000    2.389056   18.456769    ( 0.0000,  0.0000,  0.0000)
   3 Na     2.965040    0.001193   20.088922    ( 0.0000,  0.0000,  0.0000)
   4 Na     0.000000    1.217544   21.825127    ( 0.0000,  0.0000,  0.0000)
   5 Na     2.965040    2.425048   23.564102    ( 0.0000,  0.0000,  0.0000)
   6 Na     0.000000    0.000103   25.265528    ( 0.0000,  0.0000,  0.0000)
   7 Na     2.965040    1.208959   26.977386    ( 0.0000,  0.0000,  0.0000)
   8 Na    -0.000000    2.414134   28.701246    ( 0.0000,  0.0000,  0.0000)
   9 Na     2.965040    3.638279   30.394660    ( 0.0000,  0.0000,  0.0000)
  10 Na     0.000000    1.211558   32.126248    ( 0.0000,  0.0000,  0.0000)
  11 Na     2.965040    2.421114   33.833826    ( 0.0000,  0.0000,  0.0000)
  12 Na     0.000000   -0.003841   35.536109    ( 0.0000,  0.0000,  0.0000)
  13 Na     2.965040    1.202978   37.276452    ( 0.0000,  0.0000,  0.0000)
  14 Na    -0.000000    2.419947   39.013824    ( 0.0000,  0.0000,  0.0000)
  15 Na     2.965040    0.032104   40.645979    ( 0.0000,  0.0000,  0.0000)
  16 Na     0.000000    1.036891   42.466440    ( 0.0000,  0.0000,  0.0000)
  17 Na     2.965040    2.572715   43.956762    ( 0.0000,  0.0000,  0.0000)

Unit cell:
           periodic     x           y           z      points  spacing
  1. axis:    yes    5.930080    0.000000    0.000000    32     0.1853
  2. axis:    yes    0.000000    3.631418    0.000000    20     0.1816
  3. axis:    no     0.000000    0.000000   59.101734   315     0.1876

  Lengths:   5.930080   3.631418  59.101734
  Angles:   90.000000  90.000000  90.000000

Effective grid spacing dv^(1/3) = 0.1848

     iter     time        total  log10-change:
                         energy   eigst   dens
iter:   1 19:44:52   -23.326709   -4.38
iter:   2 19:44:54   -26.801203   -3.67  -1.99
iter:   3 19:44:56   -23.238696   -4.06  -1.25
iter:   4 19:44:58   -23.200069   -5.00  -2.25
iter:   5 19:45:00   -23.199436c  -5.61  -3.11
iter:   6 19:45:03   -23.199335c  -6.12  -3.40
iter:   7 19:45:05   -23.199246c  -6.37  -3.53
iter:   8 19:45:07   -23.199241c  -6.82  -3.85
iter:   9 19:45:09   -23.199241c  -7.18  -4.00
iter:  10 19:45:11   -23.199240c  -7.57c -4.11c

Converged after 10 iterations.

Dipole moment: (-0.000000, 0.875382, -0.000643) |e|*Ang

Energy contributions relative to reference atoms: (reference = -79534.988958)

Kinetic:        +24.629948
Potential:      -21.416883
External:        +0.000000
XC:             -25.840832
Entropy (-ST):   -0.003952
Local:           -0.569498
SIC:             +0.000000
--------------------------
Free energy:    -23.201216
Extrapolated:   -23.199240

Showing only first 2 kpts
 Kpt  Band  Eigenvalues  Occupancy
  0    61     -2.14816    2.00000
  0    62     -1.60891    2.00000
  0    63     -1.05605    0.01966
  0    64     -0.59466    0.00000

  1    61     -1.79455    2.00000
  1    62     -1.25903    2.00000
  1    63     -0.71048    0.00000
  1    64     -0.25831    0.00000


Fermi level: -1.10218

No gap

Forces in eV/Ang:
  0 Na    0.00000   -0.00219    0.00033
  1 Na    0.00000    0.00734    0.00773
  2 Na    0.00000   -0.01009   -0.00472
  3 Na    0.00000    0.00987   -0.00400
  4 Na    0.00000   -0.00727    0.02034
  5 Na    0.00000    0.00123   -0.00519
  6 Na    0.00000    0.00104   -0.00511
  7 Na    0.00000    0.00105   -0.00572
  8 Na    0.00000    0.00002    0.00265
  9 Na    0.00000   -0.00028    0.00334
 10 Na    0.00000   -0.00100    0.00124
 11 Na    0.00000   -0.00066    0.00638
 12 Na    0.00000   -0.00161    0.00684
 13 Na    0.00000    0.00729   -0.02082
 14 Na    0.00000   -0.00986    0.00335
 15 Na    0.00000    0.01030    0.00446
 16 Na    0.00000   -0.00729   -0.00879
 17 Na    0.00000    0.00192    0.00118

System changes: positions 

Initializing position-dependent things.

Density initialized from wave functions
   .--------------.  
  /|              |  
 * |              |  
 | |              |  
 | |              |  
 | |              |  
 | |              |  
 | |              |  
 | |              |  
 | |              |  
 | |              |  
 | |              |  
 | |              |  
 | |              |  
 | |              |  
 | |              |  
 | |              |  
 | |              |  
 | |              |  
 | |      Na      |  
 | |              |  
 | |              |  
 |Na              |  
 | |              |  
 | |              |  
 |Na     Na       |  
 | |              |  
 | |              |  
 | |     Na       |  
 | Na             |  
 | |              |  
 | |              |  
 | |      Na      |  
 | |              |  
 | |              |  
 |Na              |  
 | |              |  
 | |     Na       |  
 |Na              |  
 | |              |  
 | |              |  
 | |     Na       |  
 | |              |  
 | |              |  
 Na|              |  
 | |      Na      |  
 | |              |  
 |Na              |  
 | |              |  
 | |              |  
 | |     Na       |  
 |Na              |  
 | |              |  
 | |              |  
 | Na    Na       |  
 | |              |  
 | |              |  
 | |              |  
 | |              |  
 | |              |  
 | |              |  
 | |              |  
 | |              |  
 | |              |  
 | |              |  
 | |              |  
 | |              |  
 | |              |  
 | |              |  
 | |              |  
 | |              |  
 | |              |  
 | |              |  
 | .--------------.  
 |/              /   
 *--------------*    

Positions:
   0 Na     0.000000   -0.153749   15.145497    ( 0.0000,  0.0000,  0.0000)
   1 Na     2.965040    1.386097   16.636162    ( 0.0000,  0.0000,  0.0000)
   2 Na    -0.000000    2.388341   18.457731    ( 0.0000,  0.0000,  0.0000)
   3 Na     2.965040    0.001373   20.088224    ( 0.0000,  0.0000,  0.0000)
   4 Na     0.000000    1.217563   21.825060    ( 0.0000,  0.0000,  0.0000)
   5 Na     2.965040    2.425137   23.563811    ( 0.0000,  0.0000,  0.0000)
   6 Na     0.000000    0.000123   25.265454    ( 0.0000,  0.0000,  0.0000)
   7 Na     2.965040    1.208945   26.977364    ( 0.0000,  0.0000,  0.0000)
   8 Na    -0.000000    2.414019   28.701269    ( 0.0000,  0.0000,  0.0000)
   9 Na     2.965040    3.638390   30.394613    ( 0.0000,  0.0000,  0.0000)
  10 Na     0.000000    1.211566   32.126242    ( 0.0000,  0.0000,  0.0000)
  11 Na     2.965040    2.421104   33.833866    ( 0.0000,  0.0000,  0.0000)
  12 Na     0.000000   -0.003932   35.536393    ( 0.0000,  0.0000,  0.0000)
  13 Na     2.965040    1.202953   37.276506    ( 0.0000,  0.0000,  0.0000)
  14 Na    -0.000000    2.419771   39.014530    ( 0.0000,  0.0000,  0.0000)
  15 Na     2.965040    0.032826   40.645029    ( 0.0000,  0.0000,  0.0000)
  16 Na     0.000000    1.034429   42.467269    ( 0.0000,  0.0000,  0.0000)
  17 Na     2.965040    2.574731   43.955239    ( 0.0000,  0.0000,  0.0000)

Unit cell:
           periodic     x           y           z      points  spacing
  1. axis:    yes    5.930080    0.000000    0.000000    32     0.1853
  2. axis:    yes    0.000000    3.631418    0.000000    20     0.1816
  3. axis:    no     0.000000    0.000000   59.101734   315     0.1876

  Lengths:   5.930080   3.631418  59.101734
  Angles:   90.000000  90.000000  90.000000

Effective grid spacing dv^(1/3) = 0.1848

     iter     time        total  log10-change:
                         energy   eigst   dens
iter:   1 19:45:16   -23.242456   -5.23
iter:   2 19:45:19   -24.446473   -4.19  -2.21
iter:   3 19:45:21   -23.202561   -4.64  -1.46
iter:   4 19:45:23   -23.199752   -5.56  -2.79
iter:   5 19:45:25   -23.199288c  -6.18  -3.18
iter:   6 19:45:27   -23.199272c  -6.66  -3.87
iter:   7 19:45:29   -23.199265c  -7.05  -4.06c
[...]
  14 Na    -0.000000    2.419286   39.014549    ( 0.0000,  0.0000,  0.0000)
  15 Na     2.965040    0.033199   40.645835    ( 0.0000,  0.0000,  0.0000)
  16 Na     0.000000    1.034427   42.466802    ( 0.0000,  0.0000,  0.0000)
  17 Na     2.965040    2.574574   43.955097    ( 0.0000,  0.0000,  0.0000)

Unit cell:
           periodic     x           y           z      points  spacing
  1. axis:    yes    5.930080    0.000000    0.000000    32     0.1853
  2. axis:    yes    0.000000    3.631418    0.000000    20     0.1816
  3. axis:    no     0.000000    0.000000   59.101734   315     0.1876

  Lengths:   5.930080   3.631418  59.101734
  Angles:   90.000000  90.000000  90.000000

Effective grid spacing dv^(1/3) = 0.1848

     iter     time        total  log10-change:
                         energy   eigst   dens
iter:   1 19:45:37   -23.310378   -5.14
iter:   2 19:45:39   -26.661198   -3.68  -2.00
iter:   3 19:45:41   -23.201519   -4.11  -1.25
iter:   4 19:45:43   -23.199733   -5.07  -2.88
iter:   5 19:45:45   -23.199414c  -5.71  -3.23
iter:   6 19:45:48   -23.199360c  -6.20  -3.75
iter:   7 19:45:50   -23.199354c  -6.65  -4.15c
iter:   8 19:45:52   -23.199354c  -7.05  -4.29c
iter:   9 19:45:54   -23.199358c  -7.38  -4.23c
iter:  10 19:45:56   -23.199352c  -7.74c -4.11c

Converged after 10 iterations.

Dipole moment: (-0.000000, 0.874600, -0.000052) |e|*Ang

Energy contributions relative to reference atoms: (reference = -79534.988958)

Kinetic:        +24.649073
Potential:      -21.429985
External:        +0.000000
XC:             -25.842954
Entropy (-ST):   -0.003948
Local:           -0.573512
SIC:             +0.000000
--------------------------
Free energy:    -23.201326
Extrapolated:   -23.199352

Showing only first 2 kpts
 Kpt  Band  Eigenvalues  Occupancy
  0    61     -2.14820    2.00000
  0    62     -1.60872    2.00000
  0    63     -1.05577    0.01884
  0    64     -0.59501    0.00000

  1    61     -1.79458    2.00000
  1    62     -1.25884    2.00000
  1    63     -0.71021    0.00000
  1    64     -0.25866    0.00000


Fermi level: -1.10232

No gap

Forces in eV/Ang:
  0 Na    0.00000    0.00085   -0.00070
  1 Na    0.00000    0.00438    0.00843
  2 Na    0.00000   -0.01093   -0.00319
  3 Na    0.00000    0.00938   -0.00273
  4 Na    0.00000   -0.00668    0.01897
  5 Na    0.00000    0.00145   -0.00652
  6 Na    0.00000    0.00080   -0.00516
  7 Na    0.00000    0.00089   -0.00420
  8 Na    0.00000   -0.00009    0.00321
  9 Na    0.00000   -0.00014    0.00191
 10 Na    0.00000   -0.00088   -0.00121
 11 Na    0.00000   -0.00047    0.00650
 12 Na    0.00000   -0.00179    0.00864
 13 Na    0.00000    0.00673   -0.01942
 14 Na    0.00000   -0.00946    0.00208
 15 Na    0.00000    0.01110    0.00236
 16 Na    0.00000   -0.00427   -0.00958
 17 Na    0.00000   -0.00108    0.00196

System changes: positions 

Initializing position-dependent things.

Density initialized from wave functions
   .--------------.  
  /|              |  
 * |              |  
 | |              |  
 | |              |  
 | |              |  
 | |              |  
 | |              |  
 | |              |  
 | |              |  
 | |              |  
 | |              |  
 | |              |  
 | |              |  
 | |              |  
 | |              |  
 | |              |  
 | |              |  
 | |              |  
 | |      Na      |  
 | |              |  
 | |              |  
 |Na              |  
 | |              |  
 | |              |  
 |Na     Na       |  
 | |              |  
 | |              |  
 | |     Na       |  
 | Na             |  
 | |              |  
 | |              |  
 | |      Na      |  
 | |              |  
 | |              |  
 |Na              |  
 | |              |  
 | |     Na       |  
 |Na              |  
 | |              |  
 | |              |  
 | |     Na       |  
 | |              |  
 | |              |  
 Na|              |  
 | |      Na      |  
 | |              |  
 |Na              |  
 | |              |  
 | |              |  
 | |     Na       |  
 |Na              |  
 | |              |  
 | |              |  
 | Na    Na       |  
 | |              |  
 | |              |  
 | |              |  
 | |              |  
 | |              |  
 | |              |  
 | |              |  
 | |              |  
 | |              |  
 | |              |  
 | |              |  
 | |              |  
 | |              |  
 | |              |  
 | |              |  
 | |              |  
 | |              |  
 | |              |  
 | .--------------.  
 |/              /   
 *--------------*    

Positions:
   0 Na     0.000000   -0.162778   15.157346    ( 0.0000,  0.0000,  0.0000)
   1 Na     2.965040    1.409112   16.653409    ( 0.0000,  0.0000,  0.0000)
   2 Na    -0.000000    2.358903   18.439663    ( 0.0000,  0.0000,  0.0000)
   3 Na     2.965040    0.028941   20.078571    ( 0.0000,  0.0000,  0.0000)
   4 Na     0.000000    1.197163   21.881897    ( 0.0000,  0.0000,  0.0000)
   5 Na     2.965040    2.428729   23.552269    ( 0.0000,  0.0000,  0.0000)
   6 Na     0.000000    0.002999   25.249720    ( 0.0000,  0.0000,  0.0000)
   7 Na     2.965040    1.211837   26.960798    ( 0.0000,  0.0000,  0.0000)
   8 Na    -0.000000    2.414005   28.711809    ( 0.0000,  0.0000,  0.0000)
   9 Na     2.965040    3.637662   30.400828    ( 0.0000,  0.0000,  0.0000)
  10 Na     0.000000    1.208759   32.130576    ( 0.0000,  0.0000,  0.0000)
  11 Na     2.965040    2.419314   33.853740    ( 0.0000,  0.0000,  0.0000)
  12 Na    -0.000000   -0.008558   35.553047    ( 0.0000,  0.0000,  0.0000)
  13 Na     2.965040    1.223497   37.219050    ( 0.0000,  0.0000,  0.0000)
  14 Na    -0.000000    2.392260   39.022694    ( 0.0000,  0.0000,  0.0000)
  15 Na     2.965040    0.062863   40.661544    ( 0.0000,  0.0000,  0.0000)
  16 Na     0.000000    1.011406   42.447290    ( 0.0000,  0.0000,  0.0000)
  17 Na     2.965040    2.583076   43.946506    ( 0.0000,  0.0000,  0.0000)

Unit cell:
           periodic     x           y           z      points  spacing
  1. axis:    yes    5.930080    0.000000    0.000000    32     0.1853
  2. axis:    yes    0.000000    3.631418    0.000000    20     0.1816
  3. axis:    no     0.000000    0.000000   59.101734   315     0.1876

  Lengths:   5.930080   3.631418  59.101734
  Angles:   90.000000  90.000000  90.000000

Effective grid spacing dv^(1/3) = 0.1848

     iter     time        total  log10-change:
                         energy   eigst   dens
iter:   1 19:46:01   -23.312305   -2.66
iter:   2 19:46:04   -23.265485   -3.78  -2.03
iter:   3 19:46:06   -23.805359   -4.20  -2.12
iter:   4 19:46:08   -23.210811   -4.60  -1.64
iter:   5 19:46:10   -23.203720   -4.73  -2.45
iter:   6 19:46:12   -23.204165c  -5.23  -2.62
iter:   7 19:46:15   -23.200000c  -5.60  -2.66
iter:   8 19:46:17   -23.199474c  -5.67  -2.89
iter:   9 19:46:19   -23.199556c  -5.50  -3.04
iter:  10 19:46:21   -23.202978c  -6.18  -3.10
iter:  11 19:46:23   -23.199171c  -6.32  -2.70
iter:  12 19:46:26   -23.199259c  -6.42  -3.31
iter:  13 19:46:28   -23.199232c  -6.60  -3.34
iter:  14 19:46:30   -23.199180c  -6.62  -3.37
iter:  15 19:46:32   -23.199169c  -6.93  -3.61
iter:  16 19:46:34   -23.199172c  -7.07  -3.76
iter:  17 19:46:36   -23.199183c  -7.49c -3.89
iter:  18 19:46:39   -23.199164c  -7.83c -3.86
iter:  19 19:46:41   -23.199167c  -7.87c -4.16c

Converged after 19 iterations.

Dipole moment: (-0.000000, 0.497007, -0.000292) |e|*Ang

Energy contributions relative to reference atoms: (reference = -79534.988958)

Kinetic:        +24.775308
Potential:      -21.522547
External:        +0.000000
XC:             -25.876579
Entropy (-ST):   -0.003945
Local:           -0.573375
SIC:             +0.000000
--------------------------
Free energy:    -23.201139
Extrapolated:   -23.199167

Showing only first 2 kpts
 Kpt  Band  Eigenvalues  Occupancy
  0    61     -2.14856    2.00000
  0    62     -1.60705    2.00000
  0    63     -1.05265    0.01319
  0    64     -0.59558    0.00000

  1    61     -1.79489    2.00000
  1    62     -1.25711    2.00000
  1    63     -0.70723    0.00000
  1    64     -0.25925    0.00000


Fermi level: -1.10280

No gap

Forces in eV/Ang:
  0 Na    0.00000    0.00823   -0.00625
  1 Na    0.00000   -0.00269   -0.01003
  2 Na    0.00000   -0.00997    0.03452
  3 Na    0.00000    0.00413    0.00520
  4 Na    0.00000   -0.00067   -0.02815
  5 Na    0.00000    0.00498   -0.00440
  6 Na    0.00000   -0.00640    0.01876
  7 Na    0.00000    0.00059    0.00596
  8 Na    0.00000    0.00006   -0.00676
  9 Na    0.00000    0.00064   -0.00289
 10 Na    0.00000   -0.00075    0.00699
 11 Na    0.00000    0.00498   -0.01861
 12 Na    0.00000   -0.00389   -0.00033
 13 Na    0.00000    0.00078    0.02974
 14 Na    0.00000   -0.00448   -0.00497
 15 Na    0.00000    0.00960   -0.03402
 16 Na    0.00000    0.00279    0.01152
 17 Na    0.00000   -0.00805    0.00528

System changes: positions 

Initializing position-dependent things.

Density initialized from wave functions
   .--------------.  
  /|              |  
 * |              |  
 | |              |  
 | |              |  
 | |              |  
 | |              |  
 | |              |  
 | |              |  
 | |              |  
 | |              |  
 | |              |  
 | |              |  
 | |              |  
 | |              |  
 | |              |  
 | |              |  
 | |              |  
 | |              |  
 | |      Na      |  
 | |              |  
 | |              |  
 |Na              |  
 | |              |  
 | |              |  
 |Na     Na       |  
 | |              |  
 | |              |  
 | |     Na       |  
 | Na             |  
 | |              |  
 | |              |  
 | |      Na      |  
 | |              |  
 | |              |  
 |Na              |  
 | |              |  
 | |     Na       |  
 |Na              |  
 | |              |  
 | |              |  
 | |     Na       |  
 | |              |  
 | |              |  
 Na|              |  
 | |      Na      |  
 | |              |  
 |Na              |  
 | |              |  
 | |              |  
 | |     Na       |  
 |Na              |  
 | |              |  
 | |              |  
 | Na    Na       |  
 | |              |  
 | |              |  
 | |              |  
 | |              |  
 | |              |  
 | |              |  
 | |              |  
 | |              |  
 | |              |  
 | |              |  
 | |              |  
 | |              |  
 | |              |  
 | |              |  
 | |              |  
 | |              |  
 | |              |  
 | |              |  
 | .--------------.  
 |/              /   
 *--------------*    

Positions:
   0 Na     0.000000   -0.158366   15.146811    ( 0.0000,  0.0000,  0.0000)
   1 Na     2.965040    1.399608   16.646938    ( 0.0000,  0.0000,  0.0000)
   2 Na    -0.000000    2.369996   18.455452    ( 0.0000,  0.0000,  0.0000)
   3 Na     2.965040    0.017145   20.082493    ( 0.0000,  0.0000,  0.0000)
   4 Na     0.000000    1.206498   21.855988    ( 0.0000,  0.0000,  0.0000)
   5 Na     2.965040    2.427388   23.553689    ( 0.0000,  0.0000,  0.0000)
   6 Na     0.000000    0.001743   25.257911    ( 0.0000,  0.0000,  0.0000)
   7 Na     2.965040    1.210456   26.969871    ( 0.0000,  0.0000,  0.0000)
   8 Na    -0.000000    2.413701   28.705877    ( 0.0000,  0.0000,  0.0000)
   9 Na     2.965040    3.638282   30.399255    ( 0.0000,  0.0000,  0.0000)
  10 Na     0.000000    1.210099   32.127030    ( 0.0000,  0.0000,  0.0000)
  11 Na     2.965040    2.420098   33.843620    ( 0.0000,  0.0000,  0.0000)
  12 Na    -0.000000   -0.006760   35.549269    ( 0.0000,  0.0000,  0.0000)
  13 Na     2.965040    1.214105   37.245219    ( 0.0000,  0.0000,  0.0000)
  14 Na    -0.000000    2.404034   39.019415    ( 0.0000,  0.0000,  0.0000)
  15 Na     2.965040    0.051510   40.646476    ( 0.0000,  0.0000,  0.0000)
  16 Na     0.000000    1.020906   42.455080    ( 0.0000,  0.0000,  0.0000)
  17 Na     2.965040    2.578951   43.955627    ( 0.0000,  0.0000,  0.0000)

Unit cell:
           periodic     x           y           z      points  spacing
  1. axis:    yes    5.930080    0.000000    0.000000    32     0.1853
  2. axis:    yes    0.000000    3.631418    0.000000    20     0.1816
  3. axis:    no     0.000000    0.000000   59.101734   315     0.1876

  Lengths:   5.930080   3.631418  59.101734
  Angles:   90.000000  90.000000  90.000000

Effective grid spacing dv^(1/3) = 0.1848

     iter     time        total  log10-change:
                         energy   eigst   dens
iter:   1 19:46:46   -23.294270   -3.18
iter:   2 19:46:48   -24.259412   -3.82  -2.04
iter:   3 19:46:50   -23.351553   -4.29  -1.53
iter:   4 19:46:52   -23.211103   -4.94  -1.98
iter:   5 19:46:55   -23.204624   -4.92  -2.51
iter:   6 19:46:57   -23.201481c  -5.34  -2.71
iter:   7 19:46:59   -23.201169c  -5.77  -3.02
iter:   8 19:47:01   -23.200830c  -5.90  -3.13
iter:   9 19:47:03   -23.200838c  -6.17  -3.38
iter:  10 19:47:06   -23.200898c  -6.75  -3.43
iter:  11 19:47:08   -23.200768c  -7.04  -3.37
iter:  12 19:47:10   -23.200819c  -6.93  -3.61
iter:  13 19:47:12   -23.200763c  -7.10  -3.60
iter:  14 19:47:14   -23.200769c  -7.30  -3.82
iter:  15 19:47:16   -23.200769c  -7.67c -3.94
iter:  16 19:47:19   -23.200780c  -7.69c -3.98
iter:  17 19:47:21   -23.200764c  -7.87c -3.89
iter:  18 19:47:23   -23.200768c  -8.07c -4.33c

Converged after 18 iterations.

Dipole moment: (-0.000000, 0.645068, -0.000083) |e|*Ang

Energy contributions relative to reference atoms: (reference = -79534.988958)

Kinetic:        +24.639929
Potential:      -21.419668
External:        +0.000000
XC:             -25.846009
Entropy (-ST):   -0.003984
Local:           -0.573028
SIC:             +0.000000
--------------------------
Free energy:    -23.202760
Extrapolated:   -23.200768

Showing only first 2 kpts
 Kpt  Band  Eigenvalues  Occupancy
  0    61     -2.14960    2.00000
  0    62     -1.60870    2.00000
  0    63     -1.05530    0.01719
  0    64     -0.59562    0.00000

  1    61     -1.79593    2.00000
  1    62     -1.25878    2.00000
  1    63     -0.70982    0.00000
  1    64     -0.25927    0.00000


Fermi level: -1.10278

No gap

Forces in eV/Ang:
  0 Na    0.00000    0.00412    0.00076
  1 Na    0.00000    0.00043   -0.00185
  2 Na    0.00000   -0.00921    0.01026
  3 Na    0.00000    0.00699    0.00143
  4 Na    0.00000   -0.00435   -0.00432
  5 Na    0.00000    0.00336   -0.00193
  6 Na    0.00000   -0.00308    0.00565
  7 Na    0.00000    0.00094   -0.00069
  8 Na    0.00000    0.00030   -0.00079
  9 Na    0.00000    0.00001   -0.00307
 10 Na    0.00000   -0.00104    0.00585
 11 Na    0.00000    0.00243   -0.00499
 12 Na    0.00000   -0.00291    0.00064
 13 Na    0.00000    0.00444    0.00500
 14 Na    0.00000   -0.00718   -0.00107
 15 Na    0.00000    0.00913   -0.01009
 16 Na    0.00000   -0.00044    0.00161
 17 Na    0.00000   -0.00410   -0.00181

System changes: positions 

Initializing position-dependent things.

Density initialized from wave functions
   .--------------.  
  /|              |  
 * |              |  
 | |              |  
 | |              |  
 | |              |  
 | |              |  
 | |              |  
 | |              |  
 | |              |  
 | |              |  
 | |              |  
 | |              |  
 | |              |  
 | |              |  
 | |              |  
 | |              |  
 | |              |  
 | |              |  
 | |      Na      |  
 | |              |  
 | |              |  
 |Na              |  
 | |              |  
 | |              |  
 |Na     Na       |  
 | |              |  
 | |              |  
 | |     Na       |  
 | Na             |  
 | |              |  
 | |              |  
 | |      Na      |  
 | |              |  
 | |              |  
 |Na              |  
 | |              |  
 | |     Na       |  
 |Na              |  
 | |              |  
 | |              |  
 | |     Na       |  
 | |              |  
 | |              |  
 Na|              |  
 | |      Na      |  
 | |              |  
 |Na              |  
 | |              |  
 | |              |  
 | |     Na       |  
 |Na              |  
 | |              |  
 | |              |  
 | Na    Na       |  
 | |              |  
 | |              |  
 | |              |  
 | |              |  
 | |              |  
 | |              |  
 | |              |  
 | |              |  
 | |              |  
 | |              |  
 | |              |  
 | |              |  
 | |              |  
 | |              |  
 | |              |  
 | |              |  
 | |              |  
 | |              |  
 | .--------------.  
 |/              /   
 *--------------*    

Positions:
   0 Na     0.000000   -0.158694   15.144209    ( 0.0000,  0.0000,  0.0000)
   1 Na     2.965040    1.401029   16.647836    ( 0.0000,  0.0000,  0.0000)
   2 Na    -0.000000    2.367951   18.460025    ( 0.0000,  0.0000,  0.0000)
   3 Na     2.965040    0.018101   20.081947    ( 0.0000,  0.0000,  0.0000)
   4 Na     0.000000    1.206193   21.856756    ( 0.0000,  0.0000,  0.0000)
   5 Na     2.965040    2.427665   23.551135    ( 0.0000,  0.0000,  0.0000)
   6 Na     0.000000    0.001797   25.258323    ( 0.0000,  0.0000,  0.0000)
   7 Na     2.965040    1.210465   26.970547    ( 0.0000,  0.0000,  0.0000)
   8 Na    -0.000000    2.413493   28.705358    ( 0.0000,  0.0000,  0.0000)
   9 Na     2.965040    3.638467   30.400058    ( 0.0000,  0.0000,  0.0000)
  10 Na     0.000000    1.210088   32.126197    ( 0.0000,  0.0000,  0.0000)
  11 Na     2.965040    2.420070   33.843244    ( 0.0000,  0.0000,  0.0000)
  12 Na    -0.000000   -0.007055   35.551869    ( 0.0000,  0.0000,  0.0000)
  13 Na     2.965040    1.214418   37.244436    ( 0.0000,  0.0000,  0.0000)
  14 Na    -0.000000    2.403083   39.019928    ( 0.0000,  0.0000,  0.0000)
  15 Na     2.965040    0.053572   40.641894    ( 0.0000,  0.0000,  0.0000)
  16 Na     0.000000    1.019477   42.454190    ( 0.0000,  0.0000,  0.0000)
  17 Na     2.965040    2.579252   43.958255    ( 0.0000,  0.0000,  0.0000)

Unit cell:
           periodic     x           y           z      points  spacing
  1. axis:    yes    5.930080    0.000000    0.000000    32     0.1853
  2. axis:    yes    0.000000    3.631418    0.000000    20     0.1816
  3. axis:    no     0.000000    0.000000   59.101734   315     0.1876

  Lengths:   5.930080   3.631418  59.101734
  Angles:   90.000000  90.000000  90.000000

Effective grid spacing dv^(1/3) = 0.1848

     iter     time        total  log10-change:
                         energy   eigst   dens
iter:   1 19:47:28   -23.235582   -4.45
iter:   2 19:47:30   -23.692404   -4.38  -2.26
iter:   3 19:47:32   -23.262210   -4.79  -1.69
iter:   4 19:47:35   -23.201712   -5.48  -2.15
iter:   5 19:47:37   -23.201011c  -6.08  -3.08
iter:   6 19:47:39   -23.200927c  -6.60  -3.39
iter:   7 19:47:41   -23.200877c  -6.70  -3.57
iter:   8 19:47:43   -23.200858c  -7.10  -3.85
iter:   9 19:47:46   -23.200855c  -7.54c -4.04c

Converged after 9 iterations.

Dipole moment: (-0.000000, 0.622639, -0.000268) |e|*Ang

Energy contributions relative to reference atoms: (reference = -79534.988958)

Kinetic:        +24.651875
Potential:      -21.434932
External:        +0.000000
XC:             -25.845120
Entropy (-ST):   -0.003993
Local:           -0.570682
SIC:             +0.000000
--------------------------
Free energy:    -23.202852
Extrapolated:   -23.200855

Showing only first 2 kpts
 Kpt  Band  Eigenvalues  Occupancy
  0    61     -2.15100    2.00000
  0    62     -1.60984    2.00000
  0    63     -1.05662    0.01799
  0    64     -0.59619    0.00000

  1    61     -1.79730    2.00000
  1    62     -1.25990    2.00000
  1    63     -0.71114    0.00000
  1    64     -0.25985    0.00000


Fermi level: -1.10364

No gap
