
  ___ ___ ___ _ _ _  
 |   |   |_  | | | | 
 | | | | | . | | | | 
 |__ |  _|___|_____|  24.1.0
 |___|_|             

User:   husi@vera-r04-07
Date:   Wed Feb 26 19:47:48 2025
Arch:   x86_64
Pid:    1475527
CWD:    /cephyr/users/husi/Vera/A3
Python: 3.11.3
gpaw:   /apps/Arch/software/GPAW/24.1.0-foss-2023a/lib/python3.11/site-packages/gpaw
_gpaw:  /apps/Arch/software/GPAW/24.1.0-foss-2023a/lib/python3.11/site-packages/
        _gpaw.cpython-311-x86_64-linux-gnu.so
ase:    /apps/Arch/software/ASE/3.22.1-gfbf-2023a/lib/python3.11/site-packages/ase (version 3.22.1)
numpy:  /apps/Arch/software/SciPy-bundle/2023.07-gfbf-2023a/lib/python3.11/site-packages/numpy (version 1.25.1)
scipy:  /apps/Arch/software/SciPy-bundle/2023.07-gfbf-2023a/lib/python3.11/site-packages/scipy (version 1.11.1)
libxc:  6.2.2
units:  Angstrom and eV
cores: 32
OpenMP: False
OMP_NUM_THREADS: 1

Input parameters:
  kpts: [8 8 1]
  mode: {ecut: 500.0,
         name: pw}
  occupations: {fixmagmom: False,
                name: fermi-dirac,
                width: 0.01}
  xc: PBE

System changes: positions, numbers, cell, pbc, initial_charges, initial_magmoms 

Initialize ...

species:
  Na:
    name: Sodium
    id: d7ecbc49209718622bcbe287195dca2a
    Z: 11.0
    valence: 7
    core: 4
    charge: 0.0
    file: /apps/Common/software/GPAW-setups/24.1.0/Na.PBE.gz
    compensation charges: {type: gauss,
                           rc: 0.37,
                           lmax: 2}
    cutoffs: {filter: 2.17,
              core: 2.59}
    valence states:
      #              energy  rcut
      - 3s(1.00)    -2.744   1.201
      - 2p(6.00)   -28.672   1.217
      - 3p(0.00)    -0.743   1.217
      -  s          24.468   1.201
      -  d           0.000   1.238
  
    # Using partial waves for Na as LCAO basis

Reference energy: -79534.988958  # eV

Spin-paired calculation

Convergence criteria:
 Maximum [total energy] change in last 3 cyles: 0.0005 eV / valence electron
 Maximum integral of absolute [dens]ity change: 0.0001 electrons / valence electron
 Maximum integral of absolute [eigenst]ate change: 4e-08 eV^2 / valence electron
 Maximum number of scf [iter]ations: 333
 (Square brackets indicate name in SCF output, whereas a 'c' in
 the SCF output indicates the quantity has converged.)

Symmetries present (total): 6

  ( 1  0  0)  ( 1 -1  0)  ( 0  1  0)  ( 0 -1  0)  (-1  1  0)  (-1  0  0)
  ( 0  1  0)  ( 0 -1  0)  ( 1  0  0)  ( 1 -1  0)  (-1  0  0)  (-1  1  0)
  ( 0  0  1)  ( 0  0  1)  ( 0  0  1)  ( 0  0  1)  ( 0  0  1)  ( 0  0  1)
Note: your k-points are not as symmetric as your crystal!

64 k-points: 8 x 8 x 1 Monkhorst-Pack grid
20 k-points in the irreducible part of the Brillouin zone
       k-points in crystal coordinates                weights
   0:     0.06250000   -0.06250000    0.00000000          2/64
   1:     0.06250000    0.06250000    0.00000000          2/64
   2:     0.18750000   -0.18750000    0.00000000          2/64
   3:     0.18750000   -0.06250000    0.00000000          4/64
   4:     0.18750000    0.06250000    0.00000000          4/64
   5:     0.18750000    0.18750000    0.00000000          2/64
   6:     0.31250000   -0.31250000    0.00000000          2/64
   7:     0.31250000   -0.18750000    0.00000000          4/64
   8:     0.31250000   -0.06250000    0.00000000          4/64
   9:     0.31250000    0.06250000    0.00000000          4/64
          ...
  19:     0.43750000    0.43750000    0.00000000          2/64

Wave functions: Plane wave expansion
  Cutoff energy: 500.000 eV
  Number of coefficients (min, max): 39035, 39173
  Pulay-stress correction: 0.000000 eV/Ang^3 (de/decut=0.000000)
  Using FFTW library
  ScaLapack parameters: grid=1x1, blocksize=None
  Wavefunction extrapolation:
    Improved wavefunction reuse through dual PAW basis 

Occupation numbers: Fermi-Dirac:
  width: 0.0100  # eV
 

Eigensolver
   Davidson(niter=2) 

Densities:
  Coarse grid: 32*32*270 grid
  Fine grid: 64*64*540 grid
  Total Charge: 0.000000 

Density mixing:
  Method: separate
  Backend: pulay
  Linear mixing parameter: 0.05
  old densities: 5
  Damping of long wavelength oscillations: 50 

Hamiltonian:
  XC and Coulomb potentials evaluated on a 64*64*540 grid
  Using the PBE Exchange-Correlation functional
  External potential:
    NoExternalPotential
 

XC parameters: PBE with 2 nearest neighbor stencil

Memory estimate:
  Process memory now: 1259.25 MiB
  Calculator: 222.43 MiB
    Density: 117.29 MiB
      Arrays: 54.84 MiB
      Localized functions: 41.36 MiB
      Mixer: 21.09 MiB
    Hamiltonian: 36.71 MiB
      Arrays: 35.86 MiB
      XC: 0.00 MiB
      Poisson: 0.00 MiB
      vbar: 0.85 MiB
    Wavefunctions: 68.44 MiB
      Arrays psit_nG: 29.89 MiB
      Eigensolver: 3.97 MiB
      Projections: 0.18 MiB
      Projectors: 20.87 MiB
      PW-descriptor: 13.54 MiB

Total number of cores used: 32
Parallelization over k-points: 4
Parallelization over states: 8

Number of atoms: 18
Number of atomic orbitals: 126
Number of bands in calculation: 80
Number of valence electrons: 126
Bands to converge: occupied

... initialized

Initializing position-dependent things.

Density initialized from atomic densities
Creating initial wave functions:
  80 bands from LCAO basis set

                                  
                                  
                                  
                                  
                                  
                                  
               Na       Na        
                  Na              
                                  
                                  
               Na                 
                        Na        
                                  
                                  
                                  
       Na      Na       Na        
                  Na              
                                  
                                  
               Na                 
                        Na        
                                  
                                  
       Na                         
               Na       Na        
                                  
                                  
                                  
       Na      Na                 
                        Na        
                                  
                                  
       Na                         
                                  
                                  
                                  
                                  

Positions:
   0 Na     0.000000    0.000000   15.000000    ( 0.0000,  0.0000,  0.0000)
   1 Na     5.930080    3.423733   16.210473    ( 0.0000,  0.0000,  0.0000)
   2 Na     2.965040    1.711867   17.420945    ( 0.0000,  0.0000,  0.0000)
   3 Na     0.000000    0.000000   18.631418    ( 0.0000,  0.0000,  0.0000)
   4 Na     5.930080    3.423733   19.841890    ( 0.0000,  0.0000,  0.0000)
   5 Na     2.965040    1.711867   21.052363    ( 0.0000,  0.0000,  0.0000)
   6 Na     0.000000    0.000000   22.262835    ( 0.0000,  0.0000,  0.0000)
   7 Na     5.930080    3.423733   23.473308    ( 0.0000,  0.0000,  0.0000)
   8 Na     2.965040    1.711867   24.683781    ( 0.0000,  0.0000,  0.0000)
   9 Na     2.965040    5.135600   25.894253    ( 0.0000,  0.0000,  0.0000)
  10 Na     5.930080    3.423733   27.104726    ( 0.0000,  0.0000,  0.0000)
  11 Na     2.965040    1.711867   28.315198    ( 0.0000,  0.0000,  0.0000)
  12 Na     0.000000    0.000000   29.525671    ( 0.0000,  0.0000,  0.0000)
  13 Na     5.930080    3.423733   30.736143    ( 0.0000,  0.0000,  0.0000)
  14 Na     2.965040    1.711867   31.946616    ( 0.0000,  0.0000,  0.0000)
  15 Na     2.965040    5.135600   33.157089    ( 0.0000,  0.0000,  0.0000)
  16 Na     5.930080    3.423733   34.367561    ( 0.0000,  0.0000,  0.0000)
  17 Na     2.965040    1.711867   35.578034    ( 0.0000,  0.0000,  0.0000)

Unit cell:
           periodic     x           y           z      points  spacing
  1. axis:    yes    5.930080    0.000000    0.000000    32     0.1605
  2. axis:    yes    2.965040    5.135600    0.000000    32     0.1605
  3. axis:    no     0.000000    0.000000   50.578034   270     0.1873

  Lengths:   5.930080   5.930080  50.578034
  Angles:   90.000000  90.000000  60.000000

Effective grid spacing dv^(1/3) = 0.1773

     iter     time        total  log10-change:
                         energy   eigst   dens
iter:   1 19:48:00   -23.056611
iter:   2 19:48:05   -22.985731   -1.37  -1.57
iter:   3 19:48:10   -22.939263   -2.06  -1.64
iter:   4 19:48:15   -22.891048   -2.41  -1.67
iter:   5 19:48:20   -22.841693   -2.78  -1.82
iter:   6 19:48:25   -22.907771   -2.85  -2.01
iter:   7 19:48:30   -22.876504   -3.44  -2.11
iter:   8 19:48:35   -22.853269c  -3.73  -2.20
iter:   9 19:48:40   -22.847497c  -4.04  -2.49
iter:  10 19:48:46   -22.845501c  -4.46  -2.81
iter:  11 19:48:51   -22.841543c  -4.50  -2.89
iter:  12 19:48:56   -22.840146c  -4.71  -3.05
iter:  13 19:49:01   -22.840499c  -5.37  -3.19
iter:  14 19:49:06   -22.839970c  -5.74  -3.07
iter:  15 19:49:11   -22.839950c  -6.04  -3.36
iter:  16 19:49:16   -22.839915c  -5.75  -3.44
iter:  17 19:49:21   -22.839908c  -6.26  -3.85
iter:  18 19:49:26   -22.839906c  -6.65  -3.95
iter:  19 19:49:31   -22.839914c  -7.01  -4.02c
iter:  20 19:49:36   -22.839908c  -7.26  -3.96
iter:  21 19:49:41   -22.839910c  -7.60c -4.13c

Converged after 21 iterations.

Dipole moment: (-0.046805, -0.027023, 0.000020) |e|*Ang

Energy contributions relative to reference atoms: (reference = -79534.988958)

Kinetic:        +22.447514
Potential:      -19.747173
External:        +0.000000
XC:             -24.960464
Entropy (-ST):   -0.002344
Local:           -0.578614
SIC:             +0.000000
--------------------------
Free energy:    -22.841082
Extrapolated:   -22.839910

Showing only first 2 kpts
 Kpt  Band  Eigenvalues  Occupancy
  0    61     -0.84277    0.00000
  0    62     -0.12295    0.00000
  0    63      0.03612    0.00000
  0    64      0.03775    0.00000

  1    61     -0.88510    0.00000
  1    62     -0.16244    0.00000
  1    63      0.31071    0.00000
  1    64      0.47595    0.00000


Fermi level: -1.36008

No gap

Forces in eV/Ang:
  0 Na   -0.00000   -0.00000    0.06267
  1 Na    0.00000   -0.00000    0.03934
  2 Na    0.00000    0.00000   -0.07914
  3 Na    0.00000    0.00000   -0.01869
  4 Na    0.00000    0.00000    0.00296
  5 Na    0.00000   -0.00000   -0.00929
  6 Na    0.00000   -0.00000   -0.00806
  7 Na    0.00000    0.00000   -0.00758
  8 Na   -0.00000   -0.00000   -0.00533
  9 Na    0.00000    0.00000    0.00533
 10 Na   -0.00000   -0.00000    0.00763
 11 Na    0.00000    0.00000    0.00817
 12 Na   -0.00000    0.00000    0.00941
 13 Na   -0.00000   -0.00000   -0.00290
 14 Na   -0.00000    0.00000    0.01868
 15 Na   -0.00000    0.00000    0.07904
 16 Na    0.00000    0.00000   -0.03947
 17 Na   -0.00000    0.00000   -0.06280

System changes: positions 

Initializing position-dependent things.

Density initialized from wave functions
                                  
                                  
                                  
                                  
                                  
                                  
               Na       Na        
                  Na              
                                  
                                  
               Na                 
                        Na        
                                  
                                  
                                  
       Na      Na       Na        
                  Na              
                                  
                                  
               Na                 
                        Na        
                                  
                                  
       Na                         
               Na       Na        
                                  
                                  
                                  
       Na      Na                 
                        Na        
                                  
                                  
       Na                         
                                  
                                  
                                  
                                  

Positions:
   0 Na    -0.000000   -0.000000   15.000895    ( 0.0000,  0.0000,  0.0000)
   1 Na     5.930080    3.423733   16.211035    ( 0.0000,  0.0000,  0.0000)
   2 Na     2.965040    1.711867   17.419815    ( 0.0000,  0.0000,  0.0000)
   3 Na     0.000000    0.000000   18.631151    ( 0.0000,  0.0000,  0.0000)
   4 Na     5.930080    3.423733   19.841933    ( 0.0000,  0.0000,  0.0000)
   5 Na     2.965040    1.711867   21.052230    ( 0.0000,  0.0000,  0.0000)
   6 Na     0.000000   -0.000000   22.262720    ( 0.0000,  0.0000,  0.0000)
   7 Na     5.930080    3.423733   23.473200    ( 0.0000,  0.0000,  0.0000)
   8 Na     2.965040    1.711867   24.683704    ( 0.0000,  0.0000,  0.0000)
   9 Na     2.965040    5.135600   25.894329    ( 0.0000,  0.0000,  0.0000)
  10 Na     5.930080    3.423733   27.104835    ( 0.0000,  0.0000,  0.0000)
  11 Na     2.965040    1.711867   28.315315    ( 0.0000,  0.0000,  0.0000)
  12 Na    -0.000000    0.000000   29.525805    ( 0.0000,  0.0000,  0.0000)
  13 Na     5.930080    3.423733   30.736102    ( 0.0000,  0.0000,  0.0000)
  14 Na     2.965040    1.711867   31.946883    ( 0.0000,  0.0000,  0.0000)
  15 Na     2.965040    5.135600   33.158218    ( 0.0000,  0.0000,  0.0000)
  16 Na     5.930080    3.423733   34.366997    ( 0.0000,  0.0000,  0.0000)
  17 Na     2.965040    1.711867   35.577137    ( 0.0000,  0.0000,  0.0000)

Unit cell:
           periodic     x           y           z      points  spacing
  1. axis:    yes    5.930080    0.000000    0.000000    32     0.1605
  2. axis:    yes    2.965040    5.135600    0.000000    32     0.1605
  3. axis:    no     0.000000    0.000000   50.578034   270     0.1873

  Lengths:   5.930080   5.930080  50.578034
  Angles:   90.000000  90.000000  60.000000

Effective grid spacing dv^(1/3) = 0.1773

     iter     time        total  log10-change:
                         energy   eigst   dens
iter:   1 19:49:51   -22.840802   -5.45
iter:   2 19:49:56   -22.840446   -6.11  -3.16
