
  ___ ___ ___ _ _ _  
 |   |   |_  | | | | 
 | | | | | . | | | | 
 |__ |  _|___|_____|  24.1.0
 |___|_|             

User:   husi@vera-r04-07
Date:   Wed Feb 26 18:46:14 2025
Arch:   x86_64
Pid:    1475527
CWD:    /cephyr/users/husi/Vera/A3
Python: 3.11.3
gpaw:   /apps/Arch/software/GPAW/24.1.0-foss-2023a/lib/python3.11/site-packages/gpaw
_gpaw:  /apps/Arch/software/GPAW/24.1.0-foss-2023a/lib/python3.11/site-packages/
        _gpaw.cpython-311-x86_64-linux-gnu.so
ase:    /apps/Arch/software/ASE/3.22.1-gfbf-2023a/lib/python3.11/site-packages/ase (version 3.22.1)
numpy:  /apps/Arch/software/SciPy-bundle/2023.07-gfbf-2023a/lib/python3.11/site-packages/numpy (version 1.25.1)
scipy:  /apps/Arch/software/SciPy-bundle/2023.07-gfbf-2023a/lib/python3.11/site-packages/scipy (version 1.11.1)
libxc:  6.2.2
units:  Angstrom and eV
cores: 32
OpenMP: False
OMP_NUM_THREADS: 1

Input parameters:
  kpts: [8 8 1]
  mode: {ecut: 500.0,
         name: pw}
  occupations: {fixmagmom: False,
                name: fermi-dirac,
                width: 0.01}
  xc: PBE

System changes: positions, numbers, cell, pbc, initial_charges, initial_magmoms 

Initialize ...

species:
  Na:
    name: Sodium
    id: d7ecbc49209718622bcbe287195dca2a
    Z: 11.0
    valence: 7
    core: 4
    charge: 0.0
    file: /apps/Common/software/GPAW-setups/24.1.0/Na.PBE.gz
    compensation charges: {type: gauss,
                           rc: 0.37,
                           lmax: 2}
    cutoffs: {filter: 2.17,
              core: 2.59}
    valence states:
      #              energy  rcut
      - 3s(1.00)    -2.744   1.201
      - 2p(6.00)   -28.672   1.217
      - 3p(0.00)    -0.743   1.217
      -  s          24.468   1.201
      -  d           0.000   1.238
  
    # Using partial waves for Na as LCAO basis

Reference energy: -61860.546967  # eV

Spin-paired calculation

Convergence criteria:
 Maximum [total energy] change in last 3 cyles: 0.0005 eV / valence electron
 Maximum integral of absolute [dens]ity change: 0.0001 electrons / valence electron
 Maximum integral of absolute [eigenst]ate change: 4e-08 eV^2 / valence electron
 Maximum number of scf [iter]ations: 333
 (Square brackets indicate name in SCF output, whereas a 'c' in
 the SCF output indicates the quantity has converged.)

Symmetries present (total): 2

  ( 1  0  0)  (-1  0  0)
  ( 0  1  0)  ( 0  1  0)
  ( 0  0  1)  ( 0  0  1)

64 k-points: 8 x 8 x 1 Monkhorst-Pack grid
16 k-points in the irreducible part of the Brillouin zone
       k-points in crystal coordinates                weights
   0:     0.06250000    0.06250000    0.00000000          4/64
   1:     0.06250000    0.18750000    0.00000000          4/64
   2:     0.06250000    0.31250000    0.00000000          4/64
   3:     0.06250000    0.43750000    0.00000000          4/64
   4:     0.18750000    0.06250000    0.00000000          4/64
   5:     0.18750000    0.18750000    0.00000000          4/64
   6:     0.18750000    0.31250000    0.00000000          4/64
   7:     0.18750000    0.43750000    0.00000000          4/64
   8:     0.31250000    0.06250000    0.00000000          4/64
   9:     0.31250000    0.18750000    0.00000000          4/64
          ...
  15:     0.43750000    0.43750000    0.00000000          4/64

Wave functions: Plane wave expansion
  Cutoff energy: 500.000 eV
  Number of coefficients (min, max): 28469, 28655
  Pulay-stress correction: 0.000000 eV/Ang^3 (de/decut=0.000000)
  Using FFTW library
  ScaLapack parameters: grid=1x1, blocksize=None
  Wavefunction extrapolation:
    Improved wavefunction reuse through dual PAW basis 

Occupation numbers: Fermi-Dirac:
  width: 0.0100  # eV
 

Eigensolver
   Davidson(niter=2) 

Densities:
  Coarse grid: 32*20*270 grid
  Fine grid: 64*40*540 grid
  Total Charge: 0.000000 

Density mixing:
  Method: separate
  Backend: pulay
  Linear mixing parameter: 0.05
  old densities: 5
  Damping of long wavelength oscillations: 50 

Hamiltonian:
  XC and Coulomb potentials evaluated on a 64*40*540 grid
  Using the PBE Exchange-Correlation functional
  External potential:
    NoExternalPotential
 

XC parameters: PBE with 2 nearest neighbor stencil

Memory estimate:
  Process memory now: 1005.77 MiB
  Calculator: 127.66 MiB
    Density: 77.67 MiB
      Arrays: 34.28 MiB
      Localized functions: 30.21 MiB
      Mixer: 13.18 MiB
    Hamiltonian: 23.03 MiB
      Arrays: 22.41 MiB
      XC: 0.00 MiB
      Poisson: 0.00 MiB
      vbar: 0.62 MiB
    Wavefunctions: 26.96 MiB
      Arrays psit_nG: 13.99 MiB
      Eigensolver: 2.79 MiB
      Projections: 0.09 MiB
      Projectors: 3.06 MiB
      PW-descriptor: 7.03 MiB

Total number of cores used: 32
Parallelization over k-points: 16
Parallelization over states: 2

Number of atoms: 14
Number of atomic orbitals: 98
Number of bands in calculation: 63
Number of valence electrons: 98
Bands to converge: occupied

... initialized

Initializing position-dependent things.

Density initialized from atomic densities
Creating initial wave functions:
  63 bands from LCAO basis set

   .--------------.  
  /|              |  
 * |              |  
 | |              |  
 | |              |  
 | |              |  
 | |              |  
 | |              |  
 | |              |  
 | |              |  
 | |              |  
 | |              |  
 | |              |  
 | |              |  
 | |              |  
 | |              |  
 | |              |  
 | |              |  
 | |              |  
 | |              |  
 | |     Na       |  
 | |              |  
 | |            Na|  
 | |      Na      |  
 | |              |  
 | |              |  
 |Na              |  
 | |       Na     |  
 | |              |  
 | |              |  
 | |             Na  
 | |              |  
 | |     Na       |  
 | |              |  
 | |              |  
 | |            Na|  
 | |      Na      |  
 | |              |  
 | |              |  
 | |             Na  
 | |              |  
 | |    Na        |  
 | |             Na  
 | |              |  
 | |              |  
 | |     Na       |  
 | |              |  
 | |              |  
 Na|              |  
 | |              |  
 | |              |  
 | |              |  
 | |              |  
 | |              |  
 | |              |  
 | |              |  
 | |              |  
 | |              |  
 | |              |  
 | |              |  
 | |              |  
 | |              |  
 | |              |  
 | |              |  
 | .--------------.  
 |/              /   
 *--------------*    

Positions:
   0 Na     0.000000    0.000000   15.000000    ( 0.0000,  0.0000,  0.0000)
   1 Na     2.965040    1.210473   16.711867    ( 0.0000,  0.0000,  0.0000)
   2 Na     5.930080    2.420945   18.423733    ( 0.0000,  0.0000,  0.0000)
   3 Na     2.965040    0.000000   20.135600    ( 0.0000,  0.0000,  0.0000)
   4 Na     5.930080    1.210473   21.847467    ( 0.0000,  0.0000,  0.0000)
   5 Na     2.965040    2.420945   23.559334    ( 0.0000,  0.0000,  0.0000)
   6 Na     5.930080    0.000000   25.271200    ( 0.0000,  0.0000,  0.0000)
   7 Na     2.965040    1.210473   26.983067    ( 0.0000,  0.0000,  0.0000)
   8 Na     5.930080    2.420945   28.694934    ( 0.0000,  0.0000,  0.0000)
   9 Na     2.965040    3.631418   30.406801    ( 0.0000,  0.0000,  0.0000)
  10 Na     0.000000    1.210473   32.118667    ( 0.0000,  0.0000,  0.0000)
  11 Na     2.965040    2.420945   33.830534    ( 0.0000,  0.0000,  0.0000)
  12 Na     5.930080    0.000000   35.542401    ( 0.0000,  0.0000,  0.0000)
  13 Na     2.965040    1.210473   37.254268    ( 0.0000,  0.0000,  0.0000)

Unit cell:
           periodic     x           y           z      points  spacing
  1. axis:    yes    5.930080    0.000000    0.000000    32     0.1853
  2. axis:    yes    0.000000    3.631418    0.000000    20     0.1816
  3. axis:    no     0.000000    0.000000   52.254268   270     0.1935

  Lengths:   5.930080   3.631418  52.254268
  Angles:   90.000000  90.000000  90.000000

Effective grid spacing dv^(1/3) = 0.1867

     iter     time        total  log10-change:
                         energy   eigst   dens
iter:   1 18:46:19   -18.029396
iter:   2 18:46:20   -17.999181   -1.39  -1.58
iter:   3 18:46:22   -17.962870   -2.08  -1.65
iter:   4 18:46:23   -17.920460   -2.46  -1.66
iter:   5 18:46:25   -17.902782   -2.86  -1.83
iter:   6 18:46:26   -17.923777c  -2.81  -1.93
iter:   7 18:46:28   -17.911322c  -3.40  -2.13
iter:   8 18:46:29   -17.993318   -3.86  -2.21
iter:   9 18:46:30   -17.885573   -4.14  -1.94
iter:  10 18:46:32   -17.884388   -4.56  -2.76
iter:  11 18:46:33   -17.881567c  -4.60  -2.86
iter:  12 18:46:35   -17.880141c  -4.68  -3.08
iter:  13 18:46:36   -17.879941c  -5.26  -3.35
iter:  14 18:46:38   -17.880020c  -5.65  -3.47
iter:  15 18:46:39   -17.879924c  -6.13  -3.37
iter:  16 18:46:40   -17.879861c  -6.43  -3.47
iter:  17 18:46:42   -17.879832c  -6.51  -3.69
iter:  18 18:46:43   -17.879817c  -6.88  -3.75
iter:  19 18:46:45   -17.879795c  -6.96  -3.80
iter:  20 18:46:46   -17.879774c  -6.98  -3.90
iter:  21 18:46:48   -17.879800c  -7.73c -3.95
iter:  22 18:46:49   -17.879784c  -7.54c -3.77
iter:  23 18:46:51   -17.879777c  -6.88  -4.00c
iter:  24 18:46:52   -17.879778c  -7.41c -4.26c

Converged after 24 iterations.

Dipole moment: (0.000000, -0.647680, 0.000048) |e|*Ang

Energy contributions relative to reference atoms: (reference = -61860.546967)

Kinetic:        +18.184251
Potential:      -15.932097
External:        +0.000000
XC:             -19.684989
Entropy (-ST):   -0.003326
Local:           -0.445279
SIC:             +0.000000
--------------------------
Free energy:    -17.881440
Extrapolated:   -17.879778

Showing only first 2 kpts
 Kpt  Band  Eigenvalues  Occupancy
  0    47     -2.54455    2.00000
  0    48     -1.91279    2.00000
  0    49     -1.24302    0.01662
  0    50     -0.74273    0.00000

  1    47     -2.18895    2.00000
  1    48     -1.56110    2.00000
  1    49     -0.89589    0.00000
  1    50     -0.40650    0.00000


Fermi level: -1.29085

No gap

Forces in eV/Ang:
  0 Na    0.00000   -0.03520    0.05743
  1 Na    0.00000    0.03663   -0.02698
  2 Na    0.00000   -0.00124   -0.02422
  3 Na    0.00000    0.00008   -0.00481
  4 Na    0.00000   -0.00051    0.00223
  5 Na    0.00000    0.00032   -0.00131
  6 Na    0.00000   -0.00006   -0.00852
  7 Na    0.00000    0.00001    0.00849
  8 Na    0.00000   -0.00025    0.00118
  9 Na    0.00000    0.00047   -0.00241
 10 Na    0.00000   -0.00013    0.00468
 11 Na    0.00000    0.00132    0.02425
 12 Na    0.00000   -0.03668    0.02705
 13 Na    0.00000    0.03516   -0.05739

System changes: positions 

Initializing position-dependent things.

Density initialized from wave functions
   .--------------.  
  /|              |  
 * |              |  
 | |              |  
 | |              |  
 | |              |  
 | |              |  
 | |              |  
 | |              |  
 | |              |  
 | |              |  
 | |              |  
 | |              |  
 | |              |  
 | |              |  
 | |              |  
 | |              |  
 | |              |  
 | |              |  
 | |              |  
 | |     Na       Na 
 | |              |  
 | |              |  
 | |      Na      |  
 | |              |  
 | |              |  
 |Na              |  
 | |              |  
 | |              |  
 | |     Na       |  
 | |             Na  
 | |              |  
 | |     Na       |  
 | |              Na 
 | |              |  
 | |              |  
 | |      Na      |  
 | |              |  
 | |              |  
 | |             Na  
 | |              |  
 | |     Na       |  
 | |             Na  
 | |              |  
 | |              |  
 | |     Na       |  
 | Na             |  
 | |              |  
 | |              |  
 | |              |  
 | |              |  
 | |              |  
 | |              |  
 | |              |  
 | |              |  
 | |              |  
 | |              |  
 | |              |  
 | |              |  
 | |              |  
 | |              |  
 | |              |  
 | |              |  
 | |              |  
 | .--------------.  
 |/              /   
 *--------------*    

Positions:
   0 Na     0.000000   -0.000503   15.000820    ( 0.0000,  0.0000,  0.0000)
   1 Na     2.965040    1.210996   16.711481    ( 0.0000,  0.0000,  0.0000)
   2 Na     5.930080    2.420927   18.423387    ( 0.0000,  0.0000,  0.0000)
   3 Na     2.965040    0.000001   20.135531    ( 0.0000,  0.0000,  0.0000)
   4 Na     5.930080    1.210465   21.847499    ( 0.0000,  0.0000,  0.0000)
   5 Na     2.965040    2.420950   23.559315    ( 0.0000,  0.0000,  0.0000)
   6 Na     5.930080   -0.000001   25.271079    ( 0.0000,  0.0000,  0.0000)
   7 Na     2.965040    1.210473   26.983188    ( 0.0000,  0.0000,  0.0000)
   8 Na     5.930080    2.420942   28.694951    ( 0.0000,  0.0000,  0.0000)
   9 Na     2.965040    3.631424   30.406766    ( 0.0000,  0.0000,  0.0000)
  10 Na     0.000000    1.210471   32.118734    ( 0.0000,  0.0000,  0.0000)
  11 Na     2.965040    2.420964   33.830880    ( 0.0000,  0.0000,  0.0000)
  12 Na     5.930080   -0.000524   35.542787    ( 0.0000,  0.0000,  0.0000)
  13 Na     2.965040    1.210975   37.253448    ( 0.0000,  0.0000,  0.0000)

Unit cell:
           periodic     x           y           z      points  spacing
  1. axis:    yes    5.930080    0.000000    0.000000    32     0.1853
  2. axis:    yes    0.000000    3.631418    0.000000    20     0.1816
  3. axis:    no     0.000000    0.000000   52.254268   270     0.1935

  Lengths:   5.930080   3.631418  52.254268
  Angles:   90.000000  90.000000  90.000000

Effective grid spacing dv^(1/3) = 0.1867

     iter     time        total  log10-change:
                         energy   eigst   dens
iter:   1 18:46:55   -17.881336   -5.87
iter:   2 18:46:57   -17.887625   -5.85  -2.88
iter:   3 18:46:58   -17.881136c  -6.27  -2.53
iter:   4 18:47:00   -17.879992c  -7.11  -2.95
iter:   5 18:47:01   -17.879984c  -7.69c -4.10c

Converged after 5 iterations.

Dipole moment: (0.000000, -0.639123, 0.000042) |e|*Ang

Energy contributions relative to reference atoms: (reference = -61860.546967)

Kinetic:        +18.221133
Potential:      -15.957346
External:        +0.000000
XC:             -19.695756
Entropy (-ST):   -0.003340
Local:           -0.446345
SIC:             +0.000000
--------------------------
Free energy:    -17.881654
Extrapolated:   -17.879984

Showing only first 2 kpts
 Kpt  Band  Eigenvalues  Occupancy
  0    47     -2.54309    2.00000
  0    48     -1.91123    2.00000
  0    49     -1.24146    0.01648
  0    50     -0.74154    0.00000

  1    47     -2.18748    2.00000
  1    48     -1.55954    2.00000
  1    49     -0.89433    0.00000
  1    50     -0.40532    0.00000


Fermi level: -1.28937

No gap

Forces in eV/Ang:
  0 Na    0.00000   -0.03466    0.05967
  1 Na    0.00000    0.03600   -0.02732
  2 Na    0.00000   -0.00138   -0.02799
  3 Na    0.00000    0.00009   -0.00489
  4 Na    0.00000   -0.00046    0.00343
  5 Na    0.00000    0.00030   -0.00256
  6 Na    0.00000   -0.00005   -0.00970
  7 Na    0.00000   -0.00000    0.00960
  8 Na    0.00000   -0.00023    0.00258
  9 Na    0.00000    0.00042   -0.00333
 10 Na    0.00000   -0.00014    0.00487
 11 Na    0.00000    0.00145    0.02783
 12 Na    0.00000   -0.03604    0.02705
 13 Na    0.00000    0.03462   -0.05977

System changes: positions 

Initializing position-dependent things.

Density initialized from wave functions
   .--------------.  
  /|              |  
 * |              |  
 | |              |  
 | |              |  
 | |              |  
 | |              |  
 | |              |  
 | |              |  
 | |              |  
 | |              |  
 | |              |  
 | |              |  
 | |              |  
 | |              |  
 | |              |  
 | |              |  
 | |              |  
 | |              |  
 | |              |  
 | |     Na       Na 
 | |              |  
 | |              |  
 | |      Na      |  
 | |              |  
 | |              |  
 |Na              |  
 | |              |  
 | |              |  
 | |     Na       |  
 | |             Na  
 | |              |  
 | |     Na       |  
 | |              Na 
 | |              |  
 | |              |  
 | |      Na      |  
 | |              |  
 | |              |  
 | |             Na  
 | |              |  
 | |     Na       |  
 | |             Na  
 | |              |  
 | |              |  
 | |     Na       |  
 | Na             |  
 | |              |  
 | |              |  
 | |              |  
 | |              |  
 | |              |  
 | |              |  
 | |              |  
 | |              |  
 | |              |  
 | |              |  
 | |              |  
 | |              |  
 | |              |  
 | |              |  
 | |              |  
 | |              |  
 | |              |  
 | .--------------.  
 |/              /   
 *--------------*    

Positions:
   0 Na     0.000000   -0.017009   15.029377    ( 0.0000,  0.0000,  0.0000)
   1 Na     2.965040    1.228136   16.698436    ( 0.0000,  0.0000,  0.0000)
   2 Na     5.930080    2.420265   18.409869    ( 0.0000,  0.0000,  0.0000)
   3 Na     2.965040    0.000046   20.133198    ( 0.0000,  0.0000,  0.0000)
   4 Na     5.930080    1.210250   21.849188    ( 0.0000,  0.0000,  0.0000)
   5 Na     2.965040    2.421090   23.558035    ( 0.0000,  0.0000,  0.0000)
   6 Na     5.930080   -0.000023   25.266401    ( 0.0000,  0.0000,  0.0000)
   7 Na     2.965040    1.210470   26.987819    ( 0.0000,  0.0000,  0.0000)
   8 Na     5.930080    2.420835   28.696243    ( 0.0000,  0.0000,  0.0000)
   9 Na     2.965040    3.631621   30.405134    ( 0.0000,  0.0000,  0.0000)
  10 Na    -0.000000    1.210404   32.121064    ( 0.0000,  0.0000,  0.0000)
  11 Na     2.965040    2.421664   33.844314    ( 0.0000,  0.0000,  0.0000)
  12 Na     5.930080   -0.017683   35.555687    ( 0.0000,  0.0000,  0.0000)
  13 Na     2.965040    1.227461   37.224835    ( 0.0000,  0.0000,  0.0000)

Unit cell:
           periodic     x           y           z      points  spacing
  1. axis:    yes    5.930080    0.000000    0.000000    32     0.1853
  2. axis:    yes    0.000000    3.631418    0.000000    20     0.1816
  3. axis:    no     0.000000    0.000000   52.254268   270     0.1935

  Lengths:   5.930080   3.631418  52.254268
  Angles:   90.000000  90.000000  90.000000

Effective grid spacing dv^(1/3) = 0.1867

     iter     time        total  log10-change:
                         energy   eigst   dens
iter:   1 18:47:04   -18.179089   -3.12
iter:   2 18:47:06   -18.039516   -3.61  -1.74
iter:   3 18:47:07   -17.889523   -4.43  -1.89
iter:   4 18:47:09   -17.888563   -4.95  -2.71
iter:   5 18:47:10   -17.886972c  -5.38  -2.79
iter:   6 18:47:11   -17.887446c  -5.81  -3.05
iter:   7 18:47:13   -17.886543c  -6.07  -2.96
iter:   8 18:47:14   -17.886444c  -6.35  -3.32
iter:   9 18:47:16   -17.886444c  -6.53  -3.48
iter:  10 18:47:17   -17.886446c  -6.52  -3.56
iter:  11 18:47:19   -17.886454c  -7.00  -3.75
iter:  12 18:47:20   -17.886448c  -7.36  -3.83
iter:  13 18:47:22   -17.886486c  -7.69c -3.85
iter:  14 18:47:23   -17.886448c  -7.13  -3.63
iter:  15 18:47:24   -17.886443c  -7.66c -4.18c

Converged after 15 iterations.

Dipole moment: (0.000000, -0.366770, 0.000058) |e|*Ang

Energy contributions relative to reference atoms: (reference = -61860.546967)

Kinetic:        +18.370442
Potential:      -16.069725
External:        +0.000000
XC:             -19.738799
Entropy (-ST):   -0.003020
Local:           -0.446851
SIC:             +0.000000
--------------------------
Free energy:    -17.887953
Extrapolated:   -17.886443

Showing only first 2 kpts
 Kpt  Band  Eigenvalues  Occupancy
  0    47     -2.54255    2.00000
  0    48     -1.90680    2.00000
  0    49     -1.23503    0.00787
  0    50     -0.74225    0.00000

  1    47     -2.18700    2.00000
  1    48     -1.55524    2.00000
  1    49     -0.88805    0.00000
  1    50     -0.40602    0.00000


Fermi level: -1.29036

No gap

Forces in eV/Ang:
  0 Na    0.00000   -0.03150    0.04305
  1 Na    0.00000    0.03418   -0.02100
  2 Na    0.00000   -0.00407   -0.00875
  3 Na    0.00000    0.00064   -0.00839
  4 Na    0.00000    0.00058   -0.00186
  5 Na    0.00000   -0.00010   -0.00159
  6 Na    0.00000    0.00000   -0.00576
  7 Na    0.00000   -0.00005    0.00567
  8 Na    0.00000    0.00017    0.00140
  9 Na    0.00000   -0.00061    0.00165
 10 Na    0.00000   -0.00067    0.00824
 11 Na    0.00000    0.00413    0.00877
 12 Na    0.00000   -0.03415    0.02110
 13 Na    0.00000    0.03155   -0.04303

System changes: positions 

Initializing position-dependent things.

Density initialized from wave functions
   .--------------.  
  /|              |  
 * |              |  
 | |              |  
 | |              |  
 | |              |  
 | |              |  
 | |              |  
 | |              |  
 | |              |  
 | |              |  
 | |              |  
 | |              |  
 | |              |  
 | |              |  
 | |              |  
 | |              |  
 | |              |  
 | |              |  
 | |              |  
 | |     Na       Na 
 | |              |  
 | |              |  
 | |      Na      |  
 | |              |  
 | |              |  
 |Na              |  
 | |              |  
 | |              |  
 | |     Na       |  
 | |             Na  
 | |              |  
 | |     Na       |  
 | |              Na 
 | |              |  
 | |              |  
 | |      Na      |  
 | |              |  
 | |              |  
 | |             Na  
 | |              |  
 | |     Na       |  
 | |             Na  
 | |              |  
 | |              |  
 | |     Na       |  
 | Na             |  
 | |              |  
 | |              |  
 | |              |  
 | |              |  
 | |              |  
 | |              |  
 | |              |  
 | |              |  
 | |              |  
 | |              |  
 | |              |  
 | |              |  
 | |              |  
 | |              |  
 | |              |  
 | |              |  
 | |              |  
 | .--------------.  
 |/              /   
 *--------------*    

Positions:
   0 Na     0.000000   -0.067660   15.116293    ( 0.0000,  0.0000,  0.0000)
   1 Na     2.965040    1.280817   16.658641    ( 0.0000,  0.0000,  0.0000)
   2 Na     5.930080    2.418073   18.369439    ( 0.0000,  0.0000,  0.0000)
   3 Na     2.965040    0.000215   20.125813    ( 0.0000,  0.0000,  0.0000)
   4 Na     5.930080    1.209644   21.854059    ( 0.0000,  0.0000,  0.0000)
   5 Na     2.965040    2.421499   23.554177    ( 0.0000,  0.0000,  0.0000)
   6 Na     5.930080   -0.000087   25.252252    ( 0.0000,  0.0000,  0.0000)
   7 Na     2.965040    1.210461   27.001824    ( 0.0000,  0.0000,  0.0000)
   8 Na     5.930080    2.420529   28.700123    ( 0.0000,  0.0000,  0.0000)
   9 Na     2.965040    3.632166   30.400415    ( 0.0000,  0.0000,  0.0000)
  10 Na    -0.000000    1.210169   32.128425    ( 0.0000,  0.0000,  0.0000)
  11 Na     2.965040    2.423970   33.884498    ( 0.0000,  0.0000,  0.0000)
  12 Na     5.930080   -0.070419   35.595062    ( 0.0000,  0.0000,  0.0000)
  13 Na     2.965040    1.278054   37.137756    ( 0.0000,  0.0000,  0.0000)

Unit cell:
           periodic     x           y           z      points  spacing
  1. axis:    yes    5.930080    0.000000    0.000000    32     0.1853
  2. axis:    yes    0.000000    3.631418    0.000000    20     0.1816
  3. axis:    no     0.000000    0.000000   52.254268   270     0.1935

  Lengths:   5.930080   3.631418  52.254268
  Angles:   90.000000  90.000000  90.000000

Effective grid spacing dv^(1/3) = 0.1867

     iter     time        total  log10-change:
                         energy   eigst   dens
iter:   1 18:47:28   -20.765424   -2.19
iter:   2 18:47:29   -19.637723   -2.39  -1.24
iter:   3 18:47:31   -17.948901   -3.23  -1.36
iter:   4 18:47:32   -17.955555   -4.08  -2.11
iter:   5 18:47:33   -17.914753c  -4.53  -2.09
iter:   6 18:47:35   -17.897970   -4.32  -2.28
iter:   7 18:47:36   -17.895819c  -5.13  -2.58
iter:   8 18:47:38   -17.894324c  -4.87  -2.70
iter:   9 18:47:39   -17.894204c  -5.32  -2.95
iter:  10 18:47:41   -17.894594c  -5.69  -3.03
iter:  11 18:47:42   -17.894742c  -6.04  -3.01
iter:  12 18:47:43   -17.894212c  -5.79  -3.00
iter:  13 18:47:45   -17.894230c  -6.15  -3.31
iter:  14 18:47:46   -17.894208c  -6.26  -3.38
iter:  15 18:47:48   -17.894212c  -6.66  -3.51
iter:  16 18:47:49   -17.894215c  -6.86  -3.59
iter:  17 18:47:51   -17.894209c  -7.21  -3.60
iter:  18 18:47:52   -17.894190c  -7.35  -3.63
iter:  19 18:47:54   -17.894187c  -7.73c -3.81
iter:  20 18:47:55   -17.894192c  -7.67c -3.85
iter:  21 18:47:56   -17.894190c  -7.82c -3.94
iter:  22 18:47:58   -17.894195c  -8.08c -4.00
iter:  23 18:47:59   -17.894201c  -8.37c -4.03c

Converged after 23 iterations.

Dipole moment: (0.000000, 0.454229, -0.000517) |e|*Ang

Energy contributions relative to reference atoms: (reference = -61860.546967)

Kinetic:        +18.828452
Potential:      -16.402322
External:        +0.000000
XC:             -19.869997
Entropy (-ST):   -0.002169
Local:           -0.449249
SIC:             +0.000000
--------------------------
Free energy:    -17.895286
Extrapolated:   -17.894201

Showing only first 2 kpts
 Kpt  Band  Eigenvalues  Occupancy
  0    47     -2.54388    2.00000
  0    48     -1.89665    2.00000
  0    49     -1.21886    0.00071
  0    50     -0.74950    0.00000

  1    47     -2.18850    2.00000
  1    48     -1.54546    2.00000
  1    49     -0.87238    0.00000
  1    50     -0.41325    0.00000


Fermi level: -1.29831

No gap

Forces in eV/Ang:
  0 Na    0.00000   -0.01608   -0.01814
  1 Na    0.00000    0.02520   -0.00362
  2 Na    0.00000   -0.01539    0.05723
  3 Na    0.00000    0.00248   -0.01851
  4 Na    0.00000    0.00371   -0.01993
  5 Na    0.00000   -0.00133    0.00237
  6 Na    0.00000    0.00011    0.00901
  7 Na    0.00000   -0.00016   -0.00788
  8 Na    0.00000    0.00137   -0.00138
  9 Na    0.00000   -0.00370    0.02045
 10 Na    0.00000   -0.00247    0.01887
 11 Na    0.00000    0.01539   -0.05694
 12 Na    0.00000   -0.02524    0.00375
 13 Na    0.00000    0.01599    0.01788

System changes: positions 

Initializing position-dependent things.

Density initialized from wave functions
   .--------------.  
  /|              |  
 * |              |  
 | |              |  
 | |              |  
 | |              |  
 | |              |  
 | |              |  
 | |              |  
 | |              |  
 | |              |  
 | |              |  
 | |              |  
 | |              |  
 | |              |  
 | |              |  
 | |              |  
 | |              |  
 | |              |  
 | |              |  
 | |     Na       Na 
 | |              |  
 | |              |  
 | |      Na      |  
 | |              |  
 | |              |  
 |Na              |  
 | |              |  
 | |              |  
 | |     Na       |  
 | |             Na  
 | |              |  
 | |     Na       |  
 | |              Na 
 | |              |  
 | |              |  
 | |      Na      |  
 | |              |  
 | |              |  
 | |             Na  
 | |              |  
 | |     Na       |  
 | |             Na  
 | |              |  
 | |              |  
 | |     Na       |  
 | Na             |  
 | |              |  
 | |              |  
 | |              |  
 | |              |  
 | |              |  
 | |              |  
 | |              |  
 | |              |  
 | |              |  
 | |              |  
 | |              |  
 | |              |  
 | |              |  
 | |              |  
 | |              |  
 | |              |  
 | |              |  
 | .--------------.  
 |/              /   
 *--------------*    

Positions:
   0 Na     0.000000   -0.060050   15.102603    ( 0.0000,  0.0000,  0.0000)
   1 Na     2.965040    1.273008   16.664751    ( 0.0000,  0.0000,  0.0000)
   2 Na     5.930080    2.418224   18.376467    ( 0.0000,  0.0000,  0.0000)
   3 Na     2.965040    0.000219   20.126724    ( 0.0000,  0.0000,  0.0000)
   4 Na     5.930080    1.209783   21.853036    ( 0.0000,  0.0000,  0.0000)
   5 Na     2.965040    2.421419   23.554826    ( 0.0000,  0.0000,  0.0000)
   6 Na     5.930080   -0.000076   25.254571    ( 0.0000,  0.0000,  0.0000)
   7 Na     2.965040    1.210461   26.999542    ( 0.0000,  0.0000,  0.0000)
   8 Na     5.930080    2.420592   28.699479    ( 0.0000,  0.0000,  0.0000)
   9 Na     2.965040    3.632037   30.401415    ( 0.0000,  0.0000,  0.0000)
  10 Na    -0.000000    1.210175   32.127520    ( 0.0000,  0.0000,  0.0000)
  11 Na     2.965040    2.423802   33.877516    ( 0.0000,  0.0000,  0.0000)
  12 Na     5.930080   -0.062602   35.589026    ( 0.0000,  0.0000,  0.0000)
  13 Na     2.965040    1.270452   37.151471    ( 0.0000,  0.0000,  0.0000)

Unit cell:
           periodic     x           y           z      points  spacing
  1. axis:    yes    5.930080    0.000000    0.000000    32     0.1853
  2. axis:    yes    0.000000    3.631418    0.000000    20     0.1816
  3. axis:    no     0.000000    0.000000   52.254268   270     0.1935

  Lengths:   5.930080   3.631418  52.254268
  Angles:   90.000000  90.000000  90.000000

Effective grid spacing dv^(1/3) = 0.1867

     iter     time        total  log10-change:
                         energy   eigst   dens
iter:   1 18:48:03   -17.982063   -3.72
iter:   2 18:48:04   -18.215653   -4.07  -2.02
iter:   3 18:48:05   -17.956814   -4.53  -1.73
iter:   4 18:48:07   -17.895140   -5.33  -2.06
iter:   5 18:48:08   -17.894853   -5.84  -2.98
iter:   6 18:48:10   -17.894524c  -5.87  -3.16
iter:   7 18:48:11   -17.894468c  -6.44  -3.37
iter:   8 18:48:13   -17.894427c  -6.53  -3.53
iter:   9 18:48:14   -17.894428c  -7.02  -3.77
iter:  10 18:48:16   -17.894427c  -7.40c -3.82
iter:  11 18:48:17   -17.894414c  -7.26  -3.79
iter:  12 18:48:18   -17.894420c  -7.63c -4.07c

Converged after 12 iterations.

Dipole moment: (0.000000, 0.331412, 0.000127) |e|*Ang

Energy contributions relative to reference atoms: (reference = -61860.546967)

Kinetic:        +18.679541
Potential:      -16.287705
External:        +0.000000
XC:             -19.843302
Entropy (-ST):   -0.002296
Local:           -0.441805
SIC:             +0.000000
--------------------------
Free energy:    -17.895568
Extrapolated:   -17.894420

Showing only first 2 kpts
 Kpt  Band  Eigenvalues  Occupancy
  0    47     -2.54394    2.00000
  0    48     -1.89841    2.00000
  0    49     -1.22155    0.00106
  0    50     -0.74835    0.00000

  1    47     -2.18852    2.00000
  1    48     -1.54716    2.00000
  1    49     -0.87499    0.00000
  1    50     -0.41210    0.00000


Fermi level: -1.29697

No gap

Forces in eV/Ang:
  0 Na    0.00000   -0.02167   -0.00642
  1 Na    0.00000    0.02926   -0.00753
  2 Na    0.00000   -0.01191    0.04421
  3 Na    0.00000    0.00238   -0.01733
  4 Na    0.00000    0.00274   -0.01703
  5 Na    0.00000   -0.00097   -0.00077
  6 Na    0.00000    0.00012    0.00420
  7 Na    0.00000   -0.00017   -0.00446
  8 Na    0.00000    0.00103    0.00017
  9 Na    0.00000   -0.00274    0.01657
 10 Na    0.00000   -0.00240    0.01709
 11 Na    0.00000    0.01195   -0.04372
 12 Na    0.00000   -0.02931    0.00768
 13 Na    0.00000    0.02164    0.00633

System changes: positions 

Initializing position-dependent things.

Density initialized from wave functions
   .--------------.  
  /|              |  
 * |              |  
 | |              |  
 | |              |  
 | |              |  
 | |              |  
 | |              |  
 | |              |  
 | |              |  
 | |              |  
 | |              |  
 | |              |  
 | |              |  
 | |              |  
 | |              |  
 | |              |  
 | |              |  
 | |              |  
 | |              |  
 | |     Na       Na 
 | |              |  
 | |              |  
 | |      Na      |  
 | |              |  
 | |              |  
 |Na              |  
 | |              |  
 | |              |  
 | |     Na       |  
 | |             Na  
 | |              |  
 | |     Na       |  
 | |              Na 
 | |              |  
 | |              |  
 | |      Na      |  
 | |              |  
 | |              |  
 | |             Na  
 | |              |  
 | |     Na       |  
 | |             Na  
 | |              |  
 | |              |  
 | |     Na       |  
 | Na             |  
 | |              |  
 | |              |  
 | |              |  
 | |              |  
 | |              |  
 | |              |  
 | |              |  
 | |              |  
 | |              |  
 | |              |  
 | |              |  
 | |              |  
 | |              |  
 | |              |  
 | |              |  
 | |              |  
 | |              |  
 | .--------------.  
 |/              /   
 *--------------*    

Positions:
   0 Na     0.000000   -0.061457   15.104208    ( 0.0000,  0.0000,  0.0000)
   1 Na     2.965040    1.274593   16.663819    ( 0.0000,  0.0000,  0.0000)
   2 Na     5.930080    2.417968   18.376502    ( 0.0000,  0.0000,  0.0000)
   3 Na     2.965040    0.000263   20.126278    ( 0.0000,  0.0000,  0.0000)
   4 Na     5.930080    1.209819   21.852814    ( 0.0000,  0.0000,  0.0000)
   5 Na     2.965040    2.421411   23.554774    ( 0.0000,  0.0000,  0.0000)
   6 Na     5.930080   -0.000076   25.254393    ( 0.0000,  0.0000,  0.0000)
   7 Na     2.965040    1.210458   26.999719    ( 0.0000,  0.0000,  0.0000)
   8 Na     5.930080    2.420604   28.699524    ( 0.0000,  0.0000,  0.0000)
   9 Na     2.965040    3.632000   30.401630    ( 0.0000,  0.0000,  0.0000)
  10 Na    -0.000000    1.210130   32.127961    ( 0.0000,  0.0000,  0.0000)
  11 Na     2.965040    2.424060   33.877487    ( 0.0000,  0.0000,  0.0000)
  12 Na     5.930080   -0.064189   35.589960    ( 0.0000,  0.0000,  0.0000)
  13 Na     2.965040    1.271858   37.149864    ( 0.0000,  0.0000,  0.0000)

Unit cell:
           periodic     x           y           z      points  spacing
  1. axis:    yes    5.930080    0.000000    0.000000    32     0.1853
  2. axis:    yes    0.000000    3.631418    0.000000    20     0.1816
  3. axis:    no     0.000000    0.000000   52.254268   270     0.1935

  Lengths:   5.930080   3.631418  52.254268
  Angles:   90.000000  90.000000  90.000000

Effective grid spacing dv^(1/3) = 0.1867

     iter     time        total  log10-change:
                         energy   eigst   dens
iter:   1 18:48:22   -17.900656   -5.45
iter:   2 18:48:23   -17.940383   -5.19  -2.58
iter:   3 18:48:25   -17.897355c  -5.63  -2.12
iter:   4 18:48:26   -17.894620c  -6.53  -2.77
iter:   5 18:48:28   -17.894617c  -7.20  -3.82
iter:   6 18:48:29   -17.894597c  -7.38  -3.84
iter:   7 18:48:30   -17.894588c  -7.54c -4.15c

Converged after 7 iterations.

Dipole moment: (0.000000, 0.357066, 0.000008) |e|*Ang

Energy contributions relative to reference atoms: (reference = -61860.546967)

Kinetic:        +18.710770
Potential:      -16.311412
External:        +0.000000
XC:             -19.846112
Entropy (-ST):   -0.002288
Local:           -0.446690
SIC:             +0.000000
--------------------------
Free energy:    -17.895732
Extrapolated:   -17.894588

Showing only first 2 kpts
 Kpt  Band  Eigenvalues  Occupancy
  0    47     -2.54412    2.00000
  0    48     -1.89820    2.00000
  0    49     -1.22122    0.00099
  0    50     -0.74878    0.00000

  1    47     -2.18870    2.00000
  1    48     -1.54696    2.00000
  1    49     -0.87468    0.00000
  1    50     -0.41253    0.00000


Fermi level: -1.29728

No gap

Forces in eV/Ang:
  0 Na    0.00000   -0.01894   -0.00828
  1 Na    0.00000    0.02667   -0.00653
  2 Na    0.00000   -0.01301    0.04552
  3 Na    0.00000    0.00243   -0.01664
  4 Na    0.00000    0.00291   -0.01720
  5 Na    0.00000   -0.00108    0.00040
  6 Na    0.00000    0.00013    0.00600
  7 Na    0.00000   -0.00018   -0.00607
  8 Na    0.00000    0.00113   -0.00066
  9 Na    0.00000   -0.00292    0.01686
 10 Na    0.00000   -0.00243    0.01636
 11 Na    0.00000    0.01304   -0.04551
 12 Na    0.00000   -0.02672    0.00662
 13 Na    0.00000    0.01888    0.00813

System changes: positions 

Initializing position-dependent things.

Density initialized from wave functions
   .--------------.  
  /|              |  
 * |              |  
 | |              |  
 | |              |  
 | |              |  
 | |              |  
 | |              |  
 | |              |  
 | |              |  
 | |              |  
 | |              |  
 | |              |  
 | |              |  
 | |              |  
 | |              |  
 | |              |  
 | |              |  
 | |              |  
 | |              |  
 | |     Na       Na 
 | |              |  
 | |              |  
 | |      Na      |  
 | |              |  
 | |              |  
 |Na              |  
 | |      Na      |  
 | |              |  
 | |              |  
 | |             Na  
 | |              |  
 | |     Na       |  
 | |              Na 
 | |              |  
 | |              |  
 | |      Na      |  
 | |              |  
 | |              |  
 | |             Na  
 | |              |  
 | |     Na       |  
 | |             Na  
 | |              |  
 | |              |  
 | |     Na       |  
 | Na             |  
 | |              |  
 | |              |  
 | |              |  
 | |              |  
 | |              |  
 | |              |  
 | |              |  
 | |              |  
 | |              |  
 | |              |  
 | |              |  
 | |              |  
 | |              |  
 | |              |  
 | |              |  
 | |              |  
 | |              |  
 | .--------------.  
 |/              /   
 *--------------*    

Positions:
   0 Na     0.000000   -0.075047   15.110997    ( 0.0000,  0.0000,  0.0000)
   1 Na     2.965040    1.291252   16.656649    ( 0.0000,  0.0000,  0.0000)
   2 Na     5.930080    2.413250   18.389565    ( 0.0000,  0.0000,  0.0000)
   3 Na     2.965040    0.001117   20.119334    ( 0.0000,  0.0000,  0.0000)
   4 Na     5.930080    1.210752   21.846717    ( 0.0000,  0.0000,  0.0000)
   5 Na     2.965040    2.421104   23.554958    ( 0.0000,  0.0000,  0.0000)
   6 Na     5.930080   -0.000049   25.255138    ( 0.0000,  0.0000,  0.0000)
   7 Na     2.965040    1.210405   26.999015    ( 0.0000,  0.0000,  0.0000)
   8 Na     5.930080    2.420946   28.699214    ( 0.0000,  0.0000,  0.0000)
   9 Na     2.965040    3.631057   30.407540    ( 0.0000,  0.0000,  0.0000)
  10 Na    -0.000000    1.209262   32.134806    ( 0.0000,  0.0000,  0.0000)
  11 Na     2.965040    2.428803   33.864587    ( 0.0000,  0.0000,  0.0000)
  12 Na     5.930080   -0.080875   35.597286    ( 0.0000,  0.0000,  0.0000)
  13 Na     2.965040    1.285423   37.143073    ( 0.0000,  0.0000,  0.0000)

Unit cell:
           periodic     x           y           z      points  spacing
  1. axis:    yes    5.930080    0.000000    0.000000    32     0.1853
  2. axis:    yes    0.000000    3.631418    0.000000    20     0.1816
  3. axis:    no     0.000000    0.000000   52.254268   270     0.1935

  Lengths:   5.930080   3.631418  52.254268
  Angles:   90.000000  90.000000  90.000000

Effective grid spacing dv^(1/3) = 0.1867

     iter     time        total  log10-change:
                         energy   eigst   dens
iter:   1 18:48:34   -17.907467   -3.72
iter:   2 18:48:35   -17.905037   -4.66  -2.45
iter:   3 18:48:37   -17.900066c  -5.27  -2.55
iter:   4 18:48:38   -17.903769c  -5.63  -2.76
iter:   5 18:48:39   -17.897597c  -5.90  -2.56
iter:   6 18:48:41   -17.897685c  -6.00  -3.31
iter:   7 18:48:43   -17.897526c  -6.40  -3.37
iter:   8 18:48:44   -17.897528c  -6.90  -3.72
iter:   9 18:48:45   -17.897532c  -6.73  -3.75
iter:  10 18:48:47   -17.897539c  -7.20  -4.10c
iter:  11 18:48:48   -17.897537c  -7.37  -4.21c
iter:  12 18:48:50   -17.897539c  -7.84c -4.64c

Converged after 12 iterations.

Dipole moment: (0.000000, 0.591798, 0.000385) |e|*Ang

Energy contributions relative to reference atoms: (reference = -61860.546967)

Kinetic:        +18.729134
Potential:      -16.328206
External:        +0.000000
XC:             -19.851744
Entropy (-ST):   -0.002306
Local:           -0.445570
SIC:             +0.000000
--------------------------
Free energy:    -17.898692
Extrapolated:   -17.897539

Showing only first 2 kpts
 Kpt  Band  Eigenvalues  Occupancy
  0    47     -2.54706    2.00000
  0    48     -1.89818    2.00000
  0    49     -1.22100    0.00085
  0    50     -0.75024    0.00000

  1    47     -2.19160    2.00000
  1    48     -1.54696    2.00000
  1    49     -0.87456    0.00000
  1    50     -0.41399    0.00000


Fermi level: -1.29863

No gap

Forces in eV/Ang:
  0 Na    0.00000   -0.01772   -0.00659
  1 Na    0.00000    0.02522   -0.00481
  2 Na    0.00000   -0.01266    0.03682
  3 Na    0.00000    0.00340   -0.01554
  4 Na    0.00000    0.00150   -0.01068
  5 Na    0.00000   -0.00082   -0.00186
  6 Na    0.00000    0.00053    0.00357
  7 Na    0.00000   -0.00056   -0.00419
  8 Na    0.00000    0.00086    0.00116
  9 Na    0.00000   -0.00153    0.01027
 10 Na    0.00000   -0.00342    0.01542
 11 Na    0.00000    0.01269   -0.03691
 12 Na    0.00000   -0.02529    0.00466
 13 Na    0.00000    0.01766    0.00633

System changes: positions 

Initializing position-dependent things.

Density initialized from wave functions
   .--------------.  
  /|              |  
 * |              |  
 | |              |  
 | |              |  
 | |              |  
 | |              |  
 | |              |  
 | |              |  
 | |              |  
 | |              |  
 | |              |  
 | |              |  
 | |              |  
 | |              |  
 | |              |  
 | |              |  
 | |              |  
 | |              |  
 | |              |  
 | |     Na       Na 
 | |              |  
 | |              |  
 | |      Na      |  
 | |              |  
 | |              |  
 |Na              |  
 | |      Na      |  
 | |              |  
 | |              |  
 | |             Na  
 | |              |  
 | |     Na       |  
 | |              |  
 | |              |  
 | |            Na|  
 | |      Na      |  
 | |              |  
 | |              |  
 | |             Na  
 | |              |  
 | |     Na       |  
 | |             Na  
 | |              |  
 | |              |  
 | |     Na       |  
 | Na             |  
 | |              |  
 | |              |  
 | |              |  
 | |              |  
 | |              |  
 | |              |  
 | |              |  
 | |              |  
 | |              |  
 | |              |  
 | |              |  
 | |              |  
 | |              |  
 | |              |  
 | |              |  
 | |              |  
 | |              |  
 | .--------------.  
 |/              /   
 *--------------*    

Positions:
   0 Na     0.000000   -0.171234   15.163333    ( 0.0000,  0.0000,  0.0000)
   1 Na     2.965040    1.408604   16.605132    ( 0.0000,  0.0000,  0.0000)
   2 Na     5.930080    2.380721   18.475563    ( 0.0000,  0.0000,  0.0000)
   3 Na     2.965040    0.007100   20.071386    ( 0.0000,  0.0000,  0.0000)
   4 Na     5.930080    1.216972   21.805950    ( 0.0000,  0.0000,  0.0000)
   5 Na     2.965040    2.419046   23.555748    ( 0.0000,  0.0000,  0.0000)
   6 Na     5.930080    0.000174   25.259133    ( 0.0000,  0.0000,  0.0000)
   7 Na     2.965040    1.210000   26.995238    ( 0.0000,  0.0000,  0.0000)
   8 Na     5.930080    2.423250   28.697531    ( 0.0000,  0.0000,  0.0000)
   9 Na     2.965040    3.624762   30.447038    ( 0.0000,  0.0000,  0.0000)
  10 Na    -0.000000    1.203186   32.182089    ( 0.0000,  0.0000,  0.0000)
  11 Na     2.965040    2.461511   33.779651    ( 0.0000,  0.0000,  0.0000)
  12 Na     5.930080   -0.198423   35.649816    ( 0.0000,  0.0000,  0.0000)
  13 Na     2.965040    1.381437   37.090695    ( 0.0000,  0.0000,  0.0000)

Unit cell:
           periodic     x           y           z      points  spacing
  1. axis:    yes    5.930080    0.000000    0.000000    32     0.1853
  2. axis:    yes    0.000000    3.631418    0.000000    20     0.1816
  3. axis:    no     0.000000    0.000000   52.254268   270     0.1935

  Lengths:   5.930080   3.631418  52.254268
  Angles:   90.000000  90.000000  90.000000

Effective grid spacing dv^(1/3) = 0.1867

     iter     time        total  log10-change:
                         energy   eigst   dens
iter:   1 18:48:53   -18.308643   -2.08
iter:   2 18:48:55   -18.114616   -3.06  -1.69
iter:   3 18:48:56   -18.159508   -3.64  -1.83
iter:   4 18:48:57   -18.018647   -4.06  -1.78
iter:   5 18:48:59   -17.904603   -4.24  -1.93
iter:   6 18:49:00   -17.903486   -4.87  -2.48
iter:   7 18:49:02   -17.902463c  -4.36  -2.54
iter:   8 18:49:03   -17.902523c  -5.06  -2.87
iter:   9 18:49:05   -17.902643c  -5.32  -2.90
iter:  10 18:49:06   -17.904784c  -5.26  -3.06
iter:  11 18:49:07   -17.903130c  -5.78  -2.80
iter:  12 18:49:09   -17.902854c  -5.96  -3.15
iter:  13 18:49:10   -17.902834c  -6.29  -3.48
iter:  14 18:49:12   -17.902826c  -6.39  -3.64
iter:  15 18:49:13   -17.902823c  -6.92  -3.89
iter:  16 18:49:15   -17.902826c  -7.23  -3.95
iter:  17 18:49:16   -17.902845c  -7.33  -3.96
iter:  18 18:49:17   -17.902821c  -7.50c -3.77
iter:  19 18:49:19   -17.902821c  -7.88c -4.24c

Converged after 19 iterations.

Dipole moment: (0.000000, 2.059075, -0.000037) |e|*Ang

Energy contributions relative to reference atoms: (reference = -61860.546967)

Kinetic:        +18.919480
Potential:      -16.477105
External:        +0.000000
XC:             -19.898534
Entropy (-ST):   -0.002410
Local:           -0.445457
SIC:             +0.000000
--------------------------
Free energy:    -17.904026
Extrapolated:   -17.902821

Showing only first 2 kpts
 Kpt  Band  Eigenvalues  Occupancy
  0    47     -2.57076    2.00000
  0    48     -1.90083    2.00000
  0    49     -1.22243    0.00035
  0    50     -0.76443    0.00000

  1    47     -2.21505    2.00000
  1    48     -1.54980    2.00000
  1    49     -0.87671    0.00000
  1    50     -0.42820    0.00000


Fermi level: -1.30908

No gap

Forces in eV/Ang:
  0 Na    0.00000    0.00526   -0.00611
  1 Na    0.00000    0.00195    0.00878
  2 Na    0.00000   -0.01272   -0.02313
  3 Na    0.00000    0.01139    0.00378
  4 Na    0.00000   -0.01034    0.04186
  5 Na    0.00000    0.00090   -0.01583
  6 Na    0.00000    0.00324   -0.00850
  7 Na    0.00000   -0.00313    0.00762
  8 Na    0.00000   -0.00097    0.01633
  9 Na    0.00000    0.01015   -0.04029
 10 Na    0.00000   -0.01137   -0.00293
 11 Na    0.00000    0.01271    0.02196
 12 Na    0.00000   -0.00184   -0.00945
 13 Na    0.00000   -0.00538    0.00613

System changes: positions 

Initializing position-dependent things.

Density initialized from wave functions
   .--------------.  
  /|              |  
 * |              |  
 | |              |  
 | |              |  
 | |              |  
 | |              |  
 | |              |  
 | |              |  
 | |              |  
 | |              |  
 | |              |  
 | |              |  
 | |              |  
 | |              |  
 | |              |  
 | |              |  
 | |              |  
 | |              |  
 | |              |  
 | |     Na       Na 
 | |              |  
 | |              |  
 | |      Na      |  
 | |              |  
 | |              |  
 |Na              |  
 | |      Na      |  
 | |              |  
 | |              |  
 | |             Na  
 | |              |  
 | |     Na       |  
 | |              |  
 | |              |  
 | |            Na|  
 | |      Na      |  
 | |              |  
 | |              |  
 | |             Na  
 | |              |  
 | |     Na       |  
 | |             Na  
 | |              |  
 | |              |  
 | |     Na       |  
 | Na             |  
 | |              |  
 | |              |  
 | |              |  
 | |              |  
 | |              |  
 | |              |  
 | |              |  
 | |              |  
 | |              |  
 | |              |  
 | |              |  
 | |              |  
 | |              |  
 | |              |  
 | |              |  
 | |              |  
 | |              |  
 | .--------------.  
 |/              /   
 *--------------*    

Positions:
   0 Na     0.000000   -0.140695   15.147012    ( 0.0000,  0.0000,  0.0000)
   1 Na     2.965040    1.371386   16.621478    ( 0.0000,  0.0000,  0.0000)
   2 Na     5.930080    2.390967   18.447617    ( 0.0000,  0.0000,  0.0000)
   3 Na     2.965040    0.005305   20.086705    ( 0.0000,  0.0000,  0.0000)
   4 Na     5.930080    1.214879   21.819432    ( 0.0000,  0.0000,  0.0000)
   5 Na     2.965040    2.419714   23.555311    ( 0.0000,  0.0000,  0.0000)
   6 Na     5.930080    0.000136   25.257696    ( 0.0000,  0.0000,  0.0000)
   7 Na     2.965040    1.210097   26.996594    ( 0.0000,  0.0000,  0.0000)
   8 Na     5.930080    2.422503   28.698259    ( 0.0000,  0.0000,  0.0000)
   9 Na     2.965040    3.626877   30.433979    ( 0.0000,  0.0000,  0.0000)
  10 Na    -0.000000    1.205010   32.166991    ( 0.0000,  0.0000,  0.0000)
  11 Na     2.965040    2.451209   33.807240    ( 0.0000,  0.0000,  0.0000)
  12 Na     5.930080   -0.161141   35.633133    ( 0.0000,  0.0000,  0.0000)
  13 Na     2.965040    1.350952   37.107026    ( 0.0000,  0.0000,  0.0000)

Unit cell:
           periodic     x           y           z      points  spacing
  1. axis:    yes    5.930080    0.000000    0.000000    32     0.1853
  2. axis:    yes    0.000000    3.631418    0.000000    20     0.1816
  3. axis:    no     0.000000    0.000000   52.254268   270     0.1935

  Lengths:   5.930080   3.631418  52.254268
  Angles:   90.000000  90.000000  90.000000

Effective grid spacing dv^(1/3) = 0.1867

     iter     time        total  log10-change:
                         energy   eigst   dens
iter:   1 18:49:22   -17.951419   -3.04
iter:   2 18:49:24   -17.936198   -4.01  -2.14
iter:   3 18:49:25   -17.931891c  -4.61  -2.24
iter:   4 18:49:27   -17.915033c  -5.06  -2.24
iter:   5 18:49:28   -17.904266c  -5.12  -2.43
iter:   6 18:49:29   -17.904216c  -5.84  -3.00
iter:   7 18:49:31   -17.904170c  -5.55  -3.08
iter:   8 18:49:32   -17.904225c  -5.92  -3.38
iter:   9 18:49:34   -17.904281c  -6.15  -3.43
iter:  10 18:49:35   -17.904212c  -6.53  -3.54
iter:  11 18:49:37   -17.904272c  -6.83  -3.74
iter:  12 18:49:38   -17.904211c  -7.14  -3.55
iter:  13 18:49:39   -17.904211c  -7.26  -4.05c
iter:  14 18:49:41   -17.904212c  -7.65c -4.23c

Converged after 14 iterations.

Dipole moment: (0.000000, 1.635660, 0.000003) |e|*Ang

Energy contributions relative to reference atoms: (reference = -61860.546967)

Kinetic:        +18.829907
Potential:      -16.407871
External:        +0.000000
XC:             -19.879449
Entropy (-ST):   -0.002363
Local:           -0.445617
SIC:             +0.000000
--------------------------
Free energy:    -17.905394
Extrapolated:   -17.904212

Showing only first 2 kpts
 Kpt  Band  Eigenvalues  Occupancy
  0    47     -2.56457    2.00000
  0    48     -1.90114    2.00000
  0    49     -1.22289    0.00042
  0    50     -0.76123    0.00000

  1    47     -2.20895    2.00000
  1    48     -1.55006    2.00000
  1    49     -0.87694    0.00000
  1    50     -0.42498    0.00000


Fermi level: -1.30758

No gap

Forces in eV/Ang:
  0 Na    0.00000   -0.00191   -0.00815
  1 Na    0.00000    0.00849    0.00367
  2 Na    0.00000   -0.01241   -0.00188
  3 Na    0.00000    0.00902   -0.00066
  4 Na    0.00000   -0.00671    0.02198
  5 Na    0.00000    0.00048   -0.01097
  6 Na    0.00000    0.00243   -0.00267
  7 Na    0.00000   -0.00236    0.00211
  8 Na    0.00000   -0.00053    0.01126
  9 Na    0.00000    0.00658   -0.02144
 10 Na    0.00000   -0.00901    0.00080
 11 Na    0.00000    0.01240    0.00096
 12 Na    0.00000   -0.00852   -0.00373
 13 Na    0.00000    0.00189    0.00854

System changes: positions 

Initializing position-dependent things.

Density initialized from wave functions
   .--------------.  
  /|              |  
 * |              |  
 | |              |  
 | |              |  
 | |              |  
 | |              |  
 | |              |  
 | |              |  
 | |              |  
 | |              |  
 | |              |  
 | |              |  
 | |              |  
 | |              |  
 | |              |  
 | |              |  
 | |              |  
 | |              |  
 | |              |  
 | |     Na       Na 
 | |              |  
 | |              |  
 | |      Na      |  
 | |              |  
 | |              |  
 |Na              |  
 | |      Na      |  
 | |              |  
 | |              |  
 | |             Na  
 | |              |  
 | |     Na       |  
 | |              |  
 | |              |  
 | |            Na|  
 | |      Na      |  
 | |              |  
 | |              |  
 | |             Na  
 | |              |  
 | |     Na       |  
 | |             Na  
 | |              |  
 | |              |  
 | |     Na       |  
 | Na             |  
 | |              |  
 | |              |  
 | |              |  
 | |              |  
 | |              |  
 | |              |  
 | |              |  
 | |              |  
 | |              |  
 | |              |  
 | |              |  
 | |              |  
 | |              |  
 | |              |  
 | |              |  
 | |              |  
 | |              |  
 | .--------------.  
 |/              /   
 *--------------*    

Positions:
   0 Na     0.000000   -0.140366   15.146600    ( 0.0000,  0.0000,  0.0000)
   1 Na     2.965040    1.371089   16.621745    ( 0.0000,  0.0000,  0.0000)
   2 Na     5.930080    2.390882   18.447410    ( 0.0000,  0.0000,  0.0000)
   3 Na     2.965040    0.005420   20.086842    ( 0.0000,  0.0000,  0.0000)
   4 Na     5.930080    1.214764   21.819862    ( 0.0000,  0.0000,  0.0000)
   5 Na     2.965040    2.419726   23.555152    ( 0.0000,  0.0000,  0.0000)
   6 Na     5.930080    0.000171   25.257667    ( 0.0000,  0.0000,  0.0000)
   7 Na     2.965040    1.210064   26.996614    ( 0.0000,  0.0000,  0.0000)
   8 Na     5.930080    2.422489   28.698425    ( 0.0000,  0.0000,  0.0000)
   9 Na     2.965040    3.626989   30.433561    ( 0.0000,  0.0000,  0.0000)
  10 Na    -0.000000    1.204896   32.166858    ( 0.0000,  0.0000,  0.0000)
  11 Na     2.965040    2.451293   33.807431    ( 0.0000,  0.0000,  0.0000)
  12 Na     5.930080   -0.160844   35.632863    ( 0.0000,  0.0000,  0.0000)
  13 Na     2.965040    1.350622   37.107444    ( 0.0000,  0.0000,  0.0000)

Unit cell:
           periodic     x           y           z      points  spacing
  1. axis:    yes    5.930080    0.000000    0.000000    32     0.1853
  2. axis:    yes    0.000000    3.631418    0.000000    20     0.1816
  3. axis:    no     0.000000    0.000000   52.254268   270     0.1935

  Lengths:   5.930080   3.631418  52.254268
  Angles:   90.000000  90.000000  90.000000

Effective grid spacing dv^(1/3) = 0.1867

     iter     time        total  log10-change:
                         energy   eigst   dens
iter:   1 18:49:44   -17.904344   -6.02
iter:   2 18:49:46   -17.904307   -6.67  -3.52
iter:   3 18:49:47   -17.904292c  -7.20  -3.50
iter:   4 18:49:49   -17.904241c  -7.71c -3.58
iter:   5 18:49:50   -17.904237c  -7.98c -4.16c

Converged after 5 iterations.

Dipole moment: (0.000000, 1.628579, -0.000007) |e|*Ang

Energy contributions relative to reference atoms: (reference = -61860.546967)

Kinetic:        +18.851457
Potential:      -16.426515
External:        +0.000000
XC:             -19.882680
Entropy (-ST):   -0.002370
Local:           -0.445315
SIC:             +0.000000
--------------------------
Free energy:    -17.905422
Extrapolated:   -17.904237

Showing only first 2 kpts
 Kpt  Band  Eigenvalues  Occupancy
  0    47     -2.56328    2.00000
  0    48     -1.90011    2.00000
  0    49     -1.22193    0.00043
  0    50     -0.76002    0.00000

  1    47     -2.20766    2.00000
  1    48     -1.54902    2.00000
  1    49     -0.87598    0.00000
  1    50     -0.42377    0.00000


Fermi level: -1.30628

No gap

Forces in eV/Ang:
  0 Na    0.00000   -0.00357   -0.00483
  1 Na    0.00000    0.01042    0.00467
  2 Na    0.00000   -0.01248   -0.00306
  3 Na    0.00000    0.00867   -0.00296
  4 Na    0.00000   -0.00609    0.02368
  5 Na    0.00000    0.00042   -0.01178
  6 Na    0.00000    0.00223   -0.00535
  7 Na    0.00000   -0.00218    0.00478
  8 Na    0.00000   -0.00045    0.01196
  9 Na    0.00000    0.00597   -0.02300
 10 Na    0.00000   -0.00866    0.00331
 11 Na    0.00000    0.01246    0.00224
 12 Na    0.00000   -0.01044   -0.00487
 13 Na    0.00000    0.00355    0.00520

System changes: positions 

Initializing position-dependent things.

Density initialized from wave functions
   .--------------.  
  /|              |  
 * |              |  
 | |              |  
 | |              |  
 | |              |  
 | |              |  
 | |              |  
 | |              |  
 | |              |  
 | |              |  
 | |              |  
 | |              |  
 | |              |  
 | |              |  
 | |              |  
 | |              |  
 | |              |  
 | |              |  
 | |              |  
 | |     Na       Na 
 | |              |  
 | |              |  
 | |      Na      |  
 | |              |  
 | |              |  
 |Na              |  
 | |              |  
 | |              |  
 | |     Na      Na  
 | |              |  
 | |              |  
 | |     Na       |  
 | |              |  
 | |              |  
 | |            Na|  
 | |      Na      |  
 | |              |  
 | |              |  
 | |             Na  
 | |              |  
 | |     Na       |  
 | |             Na  
 | |              |  
 | |              |  
 | |     Na       |  
 | Na             |  
 | |              |  
 | |              |  
 | |              |  
 | |              |  
 | |              |  
 | |              |  
 | |              |  
 | |              |  
 | |              |  
 | |              |  
 | |              |  
 | |              |  
 | |              |  
 | |              |  
 | |              |  
 | |              |  
 | |              |  
 | .--------------.  
 |/              /   
 *--------------*    

Positions:
   0 Na     0.000000   -0.127331   15.112196    ( 0.0000,  0.0000,  0.0000)
   1 Na     2.965040    1.370267   16.641069    ( 0.0000,  0.0000,  0.0000)
   2 Na     5.930080    2.366832   18.437342    ( 0.0000,  0.0000,  0.0000)
   3 Na     2.965040    0.025019   20.091356    ( 0.0000,  0.0000,  0.0000)
   4 Na     5.930080    1.199095   21.874112    ( 0.0000,  0.0000,  0.0000)
   5 Na     2.965040    2.420979   23.530283    ( 0.0000,  0.0000,  0.0000)
   6 Na     5.930080    0.005599   25.252206    ( 0.0000,  0.0000,  0.0000)
   7 Na     2.965040    1.204816   27.000784    ( 0.0000,  0.0000,  0.0000)
   8 Na     5.930080    2.421094   28.724062    ( 0.0000,  0.0000,  0.0000)
   9 Na     2.965040    3.642381   30.380755    ( 0.0000,  0.0000,  0.0000)
  10 Na    -0.000000    1.185346   32.162800    ( 0.0000,  0.0000,  0.0000)
  11 Na     2.965040    2.475289   33.815328    ( 0.0000,  0.0000,  0.0000)
  12 Na     5.930080   -0.160047   35.613228    ( 0.0000,  0.0000,  0.0000)
  13 Na     2.965040    1.337576   37.142699    ( 0.0000,  0.0000,  0.0000)

Unit cell:
           periodic     x           y           z      points  spacing
  1. axis:    yes    5.930080    0.000000    0.000000    32     0.1853
  2. axis:    yes    0.000000    3.631418    0.000000    20     0.1816
  3. axis:    no     0.000000    0.000000   52.254268   270     0.1935

  Lengths:   5.930080   3.631418  52.254268
  Angles:   90.000000  90.000000  90.000000

Effective grid spacing dv^(1/3) = 0.1867

     iter     time        total  log10-change:
                         energy   eigst   dens
iter:   1 18:49:53   -18.565364   -2.47
iter:   2 18:49:55   -18.343298   -3.02  -1.54
iter:   3 18:49:56   -17.924140   -3.93  -1.68
iter:   4 18:49:58   -17.948421   -4.49  -2.31
iter:   5 18:49:59   -17.910426c  -4.50  -2.14
iter:   6 18:50:01   -17.905429c  -5.26  -2.55
iter:   7 18:50:02   -17.904892c  -5.06  -2.85
iter:   8 18:50:03   -17.904371c  -5.74  -3.00
iter:   9 18:50:05   -17.904531c  -6.05  -3.18
iter:  10 18:50:06   -17.904394c  -6.25  -3.17
iter:  11 18:50:08   -17.904394c  -6.30  -3.36
iter:  12 18:50:09   -17.904391c  -6.37  -3.50
iter:  13 18:50:11   -17.904383c  -6.86  -3.73
iter:  14 18:50:12   -17.904396c  -7.11  -3.78
iter:  15 18:50:14   -17.904382c  -7.04  -3.83
iter:  16 18:50:15   -17.904380c  -7.64c -4.00c

Converged after 16 iterations.

Dipole moment: (0.000000, 1.207169, -0.000457) |e|*Ang

Energy contributions relative to reference atoms: (reference = -61860.546967)

Kinetic:        +18.631220
Potential:      -16.258951
External:        +0.000000
XC:             -19.831219
Entropy (-ST):   -0.002467
Local:           -0.444198
SIC:             +0.000000
--------------------------
Free energy:    -17.905614
Extrapolated:   -17.904380

Showing only first 2 kpts
 Kpt  Band  Eigenvalues  Occupancy
  0    47     -2.55915    2.00000
  0    48     -1.90412    2.00000
  0    49     -1.22642    0.00084
  0    50     -0.75616    0.00000

  1    47     -2.20352    2.00000
  1    48     -1.55275    2.00000
  1    49     -0.88041    0.00000
  1    50     -0.41991    0.00000


Fermi level: -1.30417

No gap

Forces in eV/Ang:
  0 Na    0.00000   -0.00606    0.01583
  1 Na    0.00000    0.00837   -0.01065
  2 Na    0.00000   -0.00631    0.00948
  3 Na    0.00000    0.00533   -0.00547
  4 Na    0.00000   -0.00240   -0.02176
  5 Na    0.00000    0.00298    0.01249
  6 Na    0.00000   -0.00645    0.01977
  7 Na    0.00000    0.00626   -0.01796
  8 Na    0.00000   -0.00292   -0.01197
  9 Na    0.00000    0.00263    0.02090
 10 Na    0.00000   -0.00543    0.00536
 11 Na    0.00000    0.00606   -0.00783
 12 Na    0.00000   -0.00851    0.01102
 13 Na    0.00000    0.00632   -0.01625

System changes: positions 

Initializing position-dependent things.

Density initialized from wave functions
   .--------------.  
  /|              |  
 * |              |  
 | |              |  
 | |              |  
 | |              |  
 | |              |  
 | |              |  
 | |              |  
 | |              |  
 | |              |  
 | |              |  
 | |              |  
 | |              |  
 | |              |  
 | |              |  
 | |              |  
 | |              |  
 | |              |  
 | |              |  
 | |     Na       Na 
 | |              |  
 | |              |  
 | |      Na      |  
 | |              |  
 | |              |  
 |Na              |  
 | |              |  
 | |              |  
 | |     Na      Na  
 | |              |  
 | |              |  
 | |     Na       |  
 | |              |  
 | |              |  
 | |            Na|  
 | |      Na      |  
 | |              |  
 | |              |  
 | |             Na  
 | |              |  
 | |     Na       |  
 | |             Na  
 | |              |  
 | |              |  
 | |     Na       |  
 | Na             |  
 | |              |  
 | |              |  
 | |              |  
 | |              |  
 | |              |  
 | |              |  
 | |              |  
 | |              |  
 | |              |  
 | |              |  
 | |              |  
 | |              |  
 | |              |  
 | |              |  
 | |              |  
 | |              |  
 | |              |  
 | .--------------.  
 |/              /   
 *--------------*    

Positions:
   0 Na     0.000000   -0.137043   15.127293    ( 0.0000,  0.0000,  0.0000)
   1 Na     2.965040    1.375922   16.630816    ( 0.0000,  0.0000,  0.0000)
   2 Na     5.930080    2.375287   18.448144    ( 0.0000,  0.0000,  0.0000)
   3 Na     2.965040    0.017011   20.086891    ( 0.0000,  0.0000,  0.0000)
   4 Na     5.930080    1.206151   21.847997    ( 0.0000,  0.0000,  0.0000)
   5 Na     2.965040    2.420335   23.541246    ( 0.0000,  0.0000,  0.0000)
   6 Na     5.930080    0.003247   25.255495    ( 0.0000,  0.0000,  0.0000)
   7 Na     2.965040    1.207081   26.998075    ( 0.0000,  0.0000,  0.0000)
   8 Na     5.930080    2.421811   28.712716    ( 0.0000,  0.0000,  0.0000)
   9 Na     2.965040    3.635443   30.406151    ( 0.0000,  0.0000,  0.0000)
  10 Na    -0.000000    1.193328   32.167018    ( 0.0000,  0.0000,  0.0000)
  11 Na     2.965040    2.466863   33.805547    ( 0.0000,  0.0000,  0.0000)
  12 Na     5.930080   -0.165703   35.623703    ( 0.0000,  0.0000,  0.0000)
  13 Na     2.965040    1.347287   37.127239    ( 0.0000,  0.0000,  0.0000)

Unit cell:
           periodic     x           y           z      points  spacing
  1. axis:    yes    5.930080    0.000000    0.000000    32     0.1853
  2. axis:    yes    0.000000    3.631418    0.000000    20     0.1816
  3. axis:    no     0.000000    0.000000   52.254268   270     0.1935

  Lengths:   5.930080   3.631418  52.254268
  Angles:   90.000000  90.000000  90.000000

Effective grid spacing dv^(1/3) = 0.1867

     iter     time        total  log10-change:
                         energy   eigst   dens
iter:   1 18:50:18   -18.033069   -3.11
iter:   2 18:50:20   -18.079295   -3.80  -1.94
iter:   3 18:50:21   -18.035448c  -4.37  -1.86
iter:   4 18:50:23   -17.908609   -5.00  -1.91
iter:   5 18:50:24   -17.906633   -5.34  -2.71
iter:   6 18:50:25   -17.906134c  -5.52  -2.94
iter:   7 18:50:27   -17.905706c  -5.79  -3.05
iter:   8 18:50:28   -17.905672c  -6.19  -3.40
iter:   9 18:50:30   -17.905695c  -6.71  -3.50
iter:  10 18:50:31   -17.905657c  -6.57  -3.49
iter:  11 18:50:33   -17.905658c  -6.86  -3.77
iter:  12 18:50:34   -17.905664c  -7.22  -3.87
iter:  13 18:50:36   -17.905657c  -7.46c -3.97
iter:  14 18:50:37   -17.905664c  -7.59c -4.07c

Converged after 14 iterations.

Dipole moment: (0.000000, 1.451154, 0.000267) |e|*Ang

Energy contributions relative to reference atoms: (reference = -61860.546967)

Kinetic:        +18.755904
Potential:      -16.359169
External:        +0.000000
XC:             -19.855021
Entropy (-ST):   -0.002434
Local:           -0.446160
SIC:             +0.000000
--------------------------
Free energy:    -17.906881
Extrapolated:   -17.905664

Showing only first 2 kpts
 Kpt  Band  Eigenvalues  Occupancy
  0    47     -2.56215    2.00000
  0    48     -1.90276    2.00000
  0    49     -1.22486    0.00063
  0    50     -0.75816    0.00000

  1    47     -2.20651    2.00000
  1    48     -1.55151    2.00000
  1    49     -0.87890    0.00000
  1    50     -0.42191    0.00000


Fermi level: -1.30545

No gap

Forces in eV/Ang:
  0 Na    0.00000   -0.00384    0.00658
  1 Na    0.00000    0.00808   -0.00438
  2 Na    0.00000   -0.00918   -0.00022
  3 Na    0.00000    0.00722   -0.00237
  4 Na    0.00000   -0.00518    0.00277
  5 Na    0.00000    0.00195    0.00126
  6 Na    0.00000   -0.00217    0.00640
  7 Na    0.00000    0.00211   -0.00646
  8 Na    0.00000   -0.00194   -0.00167
  9 Na    0.00000    0.00522   -0.00316
 10 Na    0.00000   -0.00729    0.00256
 11 Na    0.00000    0.00901    0.00055
 12 Na    0.00000   -0.00817    0.00372
 13 Na    0.00000    0.00397   -0.00718

Timing:                                      incl.     excl.
-------------------------------------------------------------------
Density initialized from wave functions:     2.733     2.681   0.4% |
 Symmetrize density:                         0.051     0.051   0.0% |
Forces:                                     16.081    16.081   2.5% ||
Hamiltonian:                                 4.730     0.017   0.0% |
 Atomic:                                     0.253     0.253   0.0% |
  XC Correction:                             0.000     0.000   0.0% |
 Calculate atomic Hamiltonians:              1.969     1.969   0.3% |
 Communicate:                                0.001     0.001   0.0% |
 Initialize Hamiltonian:                     0.001     0.001   0.0% |
 Poisson:                                    0.033     0.033   0.0% |
 XC 3D grid:                                 2.455     2.455   0.4% |
LCAO initialization:                         1.076     0.007   0.0% |
 LCAO eigensolver:                           0.271     0.000   0.0% |
  Calculate projections:                     0.000     0.000   0.0% |
  DenseAtomicCorrection:                     0.001     0.001   0.0% |
  Distribute overlap matrix:                 0.000     0.000   0.0% |
  Orbital Layouts:                           0.004     0.004   0.0% |
  Potential matrix:                          0.265     0.265   0.0% |
  Sum over cells:                            0.000     0.000   0.0% |
 LCAO to grid:                               0.738     0.738   0.1% |
 Set positions (LCAO WFS):                   0.060     0.013   0.0% |
  Basic WFS set positions:                   0.000     0.000   0.0% |
  Basis functions set positions:             0.000     0.000   0.0% |
  P tci:                                     0.019     0.019   0.0% |
  ST tci:                                    0.018     0.018   0.0% |
  mktci:                                     0.009     0.009   0.0% |
PWDescriptor:                                0.360     0.360   0.1% |
Redistribute:                                0.005     0.005   0.0% |
SCF-cycle:                                 231.912     2.082   0.3% |
 Davidson:                                 129.470    39.603   6.1% |-|
  Apply H:                                  17.745    17.172   2.6% ||
   HMM T:                                    0.573     0.573   0.1% |
  Subspace diag:                            16.150     0.013   0.0% |
   calc_h_matrix:                           11.767     3.060   0.5% |
    Apply H:                                 8.707     8.442   1.3% ||
     HMM T:                                  0.265     0.265   0.0% |
   diagonalize:                              0.215     0.215   0.0% |
   rotate_psi:                               4.155     4.155   0.6% |
  calc. matrices:                           40.408    22.567   3.5% ||
   Apply H:                                 17.842    17.323   2.7% ||
    HMM T:                                   0.519     0.519   0.1% |
  diagonalize:                               1.938     1.938   0.3% |
  rotate_psi:                               13.626    13.626   2.1% ||
 Density:                                   38.382     0.002   0.0% |
  Atomic density matrices:                   0.172     0.172   0.0% |
  Mix:                                      33.051    33.051   5.1% |-|
  Multipole moments:                         0.022     0.022   0.0% |
  Pseudo density:                            5.135     4.422   0.7% |
   Symmetrize density:                       0.713     0.713   0.1% |
 Hamiltonian:                               60.890     0.231   0.0% |
  Atomic:                                    3.564     3.564   0.5% |
   XC Correction:                            0.000     0.000   0.0% |
  Calculate atomic Hamiltonians:            25.120    25.120   3.9% |-|
  Communicate:                               0.011     0.011   0.0% |
  Poisson:                                   0.416     0.416   0.1% |
  XC 3D grid:                               31.549    31.549   4.9% |-|
 Orthonormalize:                             1.088     0.003   0.0% |
  calc_s_matrix:                             0.182     0.182   0.0% |
  inverse-cholesky:                          0.013     0.013   0.0% |
  projections:                               0.604     0.604   0.1% |
  rotate_psi_s:                              0.287     0.287   0.0% |
Set symmetry:                                0.001     0.001   0.0% |
Other:                                     392.977   392.977  60.5% |-----------------------|
-------------------------------------------------------------------
Total:                                               649.875 100.0%

Memory usage: 1.10 GiB
Date: Wed Feb 26 18:57:04 2025
