
  ___ ___ ___ _ _ _  
 |   |   |_  | | | | 
 | | | | | . | | | | 
 |__ |  _|___|_____|  24.1.0
 |___|_|             

User:   husi@vera-r04-07
Date:   Wed Feb 26 18:28:59 2025
Arch:   x86_64
Pid:    1475527
CWD:    /cephyr/users/husi/Vera/A3
Python: 3.11.3
gpaw:   /apps/Arch/software/GPAW/24.1.0-foss-2023a/lib/python3.11/site-packages/gpaw
_gpaw:  /apps/Arch/software/GPAW/24.1.0-foss-2023a/lib/python3.11/site-packages/
        _gpaw.cpython-311-x86_64-linux-gnu.so
ase:    /apps/Arch/software/ASE/3.22.1-gfbf-2023a/lib/python3.11/site-packages/ase (version 3.22.1)
numpy:  /apps/Arch/software/SciPy-bundle/2023.07-gfbf-2023a/lib/python3.11/site-packages/numpy (version 1.25.1)
scipy:  /apps/Arch/software/SciPy-bundle/2023.07-gfbf-2023a/lib/python3.11/site-packages/scipy (version 1.11.1)
libxc:  6.2.2
units:  Angstrom and eV
cores: 32
OpenMP: False
OMP_NUM_THREADS: 1

Input parameters:
  kpts: [8 8 1]
  mode: {ecut: 500.0,
         name: pw}
  occupations: {fixmagmom: False,
                name: fermi-dirac,
                width: 0.01}
  xc: PBE

System changes: positions, numbers, cell, pbc, initial_charges, initial_magmoms 

Initialize ...

species:
  Na:
    name: Sodium
    id: d7ecbc49209718622bcbe287195dca2a
    Z: 11.0
    valence: 7
    core: 4
    charge: 0.0
    file: /apps/Common/software/GPAW-setups/24.1.0/Na.PBE.gz
    compensation charges: {type: gauss,
                           rc: 0.37,
                           lmax: 2}
    cutoffs: {filter: 2.17,
              core: 2.59}
    valence states:
      #              energy  rcut
      - 3s(1.00)    -2.744   1.201
      - 2p(6.00)   -28.672   1.217
      - 3p(0.00)    -0.743   1.217
      -  s          24.468   1.201
      -  d           0.000   1.238
  
    # Using partial waves for Na as LCAO basis

Reference energy: -53023.325972  # eV

Spin-paired calculation

Convergence criteria:
 Maximum [total energy] change in last 3 cyles: 0.0005 eV / valence electron
 Maximum integral of absolute [dens]ity change: 0.0001 electrons / valence electron
 Maximum integral of absolute [eigenst]ate change: 4e-08 eV^2 / valence electron
 Maximum number of scf [iter]ations: 333
 (Square brackets indicate name in SCF output, whereas a 'c' in
 the SCF output indicates the quantity has converged.)

Symmetries present (total): 2

  ( 1  0  0)  (-1  0  0)
  ( 0  1  0)  ( 0  1  0)
  ( 0  0  1)  ( 0  0  1)

64 k-points: 8 x 8 x 1 Monkhorst-Pack grid
16 k-points in the irreducible part of the Brillouin zone
       k-points in crystal coordinates                weights
   0:     0.06250000    0.06250000    0.00000000          4/64
   1:     0.06250000    0.18750000    0.00000000          4/64
   2:     0.06250000    0.31250000    0.00000000          4/64
   3:     0.06250000    0.43750000    0.00000000          4/64
   4:     0.18750000    0.06250000    0.00000000          4/64
   5:     0.18750000    0.18750000    0.00000000          4/64
   6:     0.18750000    0.31250000    0.00000000          4/64
   7:     0.18750000    0.43750000    0.00000000          4/64
   8:     0.31250000    0.06250000    0.00000000          4/64
   9:     0.31250000    0.18750000    0.00000000          4/64
          ...
  15:     0.43750000    0.43750000    0.00000000          4/64

Wave functions: Plane wave expansion
  Cutoff energy: 500.000 eV
  Number of coefficients (min, max): 26589, 26783
  Pulay-stress correction: 0.000000 eV/Ang^3 (de/decut=0.000000)
  Using FFTW library
  ScaLapack parameters: grid=1x1, blocksize=None
  Wavefunction extrapolation:
    Improved wavefunction reuse through dual PAW basis 

Occupation numbers: Fermi-Dirac:
  width: 0.0100  # eV
 

Eigensolver
   Davidson(niter=2) 

Densities:
  Coarse grid: 32*20*252 grid
  Fine grid: 64*40*504 grid
  Total Charge: 0.000000 

Density mixing:
  Method: separate
  Backend: pulay
  Linear mixing parameter: 0.05
  old densities: 5
  Damping of long wavelength oscillations: 50 

Hamiltonian:
  XC and Coulomb potentials evaluated on a 64*40*504 grid
  Using the PBE Exchange-Correlation functional
  External potential:
    NoExternalPotential
 

XC parameters: PBE with 2 nearest neighbor stencil

Memory estimate:
  Process memory now: 884.27 MiB
  Calculator: 117.46 MiB
    Density: 72.53 MiB
      Arrays: 31.99 MiB
      Localized functions: 28.23 MiB
      Mixer: 12.30 MiB
    Hamiltonian: 21.49 MiB
      Arrays: 20.92 MiB
      XC: 0.00 MiB
      Poisson: 0.00 MiB
      vbar: 0.58 MiB
    Wavefunctions: 23.44 MiB
      Arrays psit_nG: 11.44 MiB
      Eigensolver: 2.51 MiB
      Projections: 0.07 MiB
      Projectors: 2.86 MiB
      PW-descriptor: 6.56 MiB

Total number of cores used: 32
Parallelization over k-points: 16
Parallelization over states: 2

Number of atoms: 12
Number of atomic orbitals: 84
Number of bands in calculation: 55
Number of valence electrons: 84
Bands to converge: occupied

... initialized

Initializing position-dependent things.

Density initialized from atomic densities
Creating initial wave functions:
  55 bands from LCAO basis set

   .--------------.  
  /|              |  
 * |              |  
 | |              |  
 | |              |  
 | |              |  
 | |              |  
 | |              |  
 | |              |  
 | |              |  
 | |              |  
 | |              |  
 | |              |  
 | |              |  
 | |              |  
 | |              |  
 | |              |  
 | |              |  
 | |              |  
 | |      Na      |  
 | |              |  
 | |              |  
 |Na              |  
 | |       Na     |  
 | |              |  
 |Na              |  
 | |              |  
 | |              |  
 | |     Na       |  
 | |              |  
 | |              |  
 Na|              |  
 | |      Na      |  
 | |              |  
 |Na              |  
 | |              |  
 | |              |  
 | |     Na       |  
 |Na              |  
 | |              |  
 | |              |  
 | |     Na       |  
 | |              |  
 | |              |  
 Na|              |  
 | |              |  
 | |              |  
 | |              |  
 | |              |  
 | |              |  
 | |              |  
 | |              |  
 | |              |  
 | |              |  
 | |              |  
 | |              |  
 | |              |  
 | |              |  
 | |              |  
 | |              |  
 | .--------------.  
 |/              /   
 *--------------*    

Positions:
   0 Na     0.000000    0.000000   15.000000    ( 0.0000,  0.0000,  0.0000)
   1 Na     2.965040    1.210473   16.711867    ( 0.0000,  0.0000,  0.0000)
   2 Na     0.000000    2.420945   18.423733    ( 0.0000,  0.0000,  0.0000)
   3 Na     2.965040    0.000000   20.135600    ( 0.0000,  0.0000,  0.0000)
   4 Na     0.000000    1.210473   21.847467    ( 0.0000,  0.0000,  0.0000)
   5 Na     2.965040    2.420945   23.559334    ( 0.0000,  0.0000,  0.0000)
   6 Na     0.000000    0.000000   25.271200    ( 0.0000,  0.0000,  0.0000)
   7 Na     2.965040    1.210473   26.983067    ( 0.0000,  0.0000,  0.0000)
   8 Na     0.000000    2.420945   28.694934    ( 0.0000,  0.0000,  0.0000)
   9 Na     2.965040    3.631418   30.406801    ( 0.0000,  0.0000,  0.0000)
  10 Na     0.000000    1.210473   32.118667    ( 0.0000,  0.0000,  0.0000)
  11 Na     2.965040    2.420945   33.830534    ( 0.0000,  0.0000,  0.0000)

Unit cell:
           periodic     x           y           z      points  spacing
  1. axis:    yes    5.930080    0.000000    0.000000    32     0.1853
  2. axis:    yes    0.000000    3.631418    0.000000    20     0.1816
  3. axis:    no     0.000000    0.000000   48.830534   252     0.1938

  Lengths:   5.930080   3.631418  48.830534
  Angles:   90.000000  90.000000  90.000000

Effective grid spacing dv^(1/3) = 0.1868

     iter     time        total  log10-change:
                         energy   eigst   dens
iter:   1 18:29:04   -15.387415
iter:   2 18:29:06   -15.330085   -1.38  -1.57
iter:   3 18:29:08   -15.304315   -2.07  -1.64
iter:   4 18:29:10   -15.278491   -2.38  -1.67
iter:   5 18:29:12   -15.245851   -2.90  -1.85
iter:   6 18:29:14   -15.268092c  -2.78  -1.96
iter:   7 18:29:15   -15.257282c  -3.53  -2.16
iter:   8 18:29:16   -15.250988c  -3.99  -2.22
iter:   9 18:29:17   -15.245668c  -3.94  -2.30
iter:  10 18:29:18   -15.241838c  -4.45  -2.59
iter:  11 18:29:19   -15.240123c  -4.81  -2.84
iter:  12 18:29:21   -15.238892c  -5.02  -3.01
iter:  13 18:29:22   -15.237837c  -5.02  -3.10
iter:  14 18:29:23   -15.237385c  -5.06  -3.17
iter:  15 18:29:24   -15.237230c  -5.47  -3.34
iter:  16 18:29:25   -15.237207c  -5.99  -3.73
iter:  17 18:29:27   -15.237208c  -6.57  -3.85
iter:  18 18:29:28   -15.237203c  -6.85  -3.88
iter:  19 18:29:29   -15.237203c  -7.06  -4.03c
iter:  20 18:29:30   -15.237201c  -6.94  -4.07c
iter:  21 18:29:31   -15.237200c  -7.39  -4.31c
iter:  22 18:29:32   -15.237201c  -7.81c -4.40c

Converged after 22 iterations.

Dipole moment: (-0.000000, 0.018859, -0.000016) |e|*Ang

Energy contributions relative to reference atoms: (reference = -53023.325972)

Kinetic:        +15.418958
Potential:      -13.544112
External:        +0.000000
XC:             -16.730339
Entropy (-ST):   -0.002842
Local:           -0.380288
SIC:             +0.000000
--------------------------
Free energy:    -15.238622
Extrapolated:   -15.237201

Showing only first 2 kpts
 Kpt  Band  Eigenvalues  Occupancy
  0    40     -2.79102    2.00000
  0    41     -2.08527    2.00000
  0    42     -1.33339    0.07064
  0    43     -0.81476    0.00000

  1    40     -2.43422    2.00000
  1    41     -1.73267    2.00000
  1    42     -0.98584    0.00000
  1    43     -0.47855    0.00000


Fermi level: -1.36646

No gap

Forces in eV/Ang:
  0 Na    0.00000   -0.03536    0.06727
  1 Na    0.00000    0.03658   -0.02338
  2 Na    0.00000   -0.00106   -0.02978
  3 Na    0.00000    0.00009   -0.01267
  4 Na    0.00000   -0.00034    0.00840
  5 Na    0.00000   -0.00006    0.01354
  6 Na    0.00000    0.00011   -0.01322
  7 Na    0.00000    0.00027   -0.00839
  8 Na    0.00000   -0.00005    0.01262
  9 Na    0.00000    0.00110    0.02980
 10 Na    0.00000   -0.03665    0.02336
 11 Na    0.00000    0.03540   -0.06734

System changes: positions 

Initializing position-dependent things.

Density initialized from wave functions
   .--------------.  
  /|              |  
 * |              |  
 | |              |  
 | |              |  
 | |              |  
 | |              |  
 | |              |  
 | |              |  
 | |              |  
 | |              |  
 | |              |  
 | |              |  
 | |              |  
 | |              |  
 | |              |  
 | |              |  
 | |              |  
 | |              |  
 | |      Na      |  
 | |              |  
 | |              |  
 |Na              |  
 | |              |  
 | |              |  
 |Na     Na       |  
 | |              |  
 | |              |  
 | |     Na       |  
 | |              |  
 | |              |  
 Na|              |  
 | |      Na      |  
 | |              |  
 |Na              |  
 | |              |  
 | |              |  
 | |     Na       |  
 |Na              |  
 | |              |  
 | |              |  
 | |     Na       |  
 | Na             |  
 | |              |  
 | |              |  
 | |              |  
 | |              |  
 | |              |  
 | |              |  
 | |              |  
 | |              |  
 | |              |  
 | |              |  
 | |              |  
 | |              |  
 | |              |  
 | |              |  
 | |              |  
 | |              |  
 | |              |  
 | .--------------.  
 |/              /   
 *--------------*    

Positions:
   0 Na     0.000000   -0.000505   15.000961    ( 0.0000,  0.0000,  0.0000)
   1 Na     2.965040    1.210995   16.711533    ( 0.0000,  0.0000,  0.0000)
   2 Na     0.000000    2.420930   18.423308    ( 0.0000,  0.0000,  0.0000)
   3 Na     2.965040    0.000001   20.135419    ( 0.0000,  0.0000,  0.0000)
   4 Na     0.000000    1.210468   21.847587    ( 0.0000,  0.0000,  0.0000)
   5 Na     2.965040    2.420944   23.559527    ( 0.0000,  0.0000,  0.0000)
   6 Na     0.000000    0.000002   25.271012    ( 0.0000,  0.0000,  0.0000)
   7 Na     2.965040    1.210476   26.982947    ( 0.0000,  0.0000,  0.0000)
   8 Na     0.000000    2.420944   28.695114    ( 0.0000,  0.0000,  0.0000)
   9 Na     2.965040    3.631433   30.407226    ( 0.0000,  0.0000,  0.0000)
  10 Na     0.000000    1.209949   32.119001    ( 0.0000,  0.0000,  0.0000)
  11 Na     2.965040    2.421451   33.829572    ( 0.0000,  0.0000,  0.0000)

Unit cell:
           periodic     x           y           z      points  spacing
  1. axis:    yes    5.930080    0.000000    0.000000    32     0.1853
  2. axis:    yes    0.000000    3.631418    0.000000    20     0.1816
  3. axis:    no     0.000000    0.000000   48.830534   252     0.1938

  Lengths:   5.930080   3.631418  48.830534
  Angles:   90.000000  90.000000  90.000000

Effective grid spacing dv^(1/3) = 0.1868

     iter     time        total  log10-change:
                         energy   eigst   dens
iter:   1 18:29:35   -15.237778   -5.74
iter:   2 18:29:36   -15.238200   -6.30  -3.13
iter:   3 18:29:37   -15.237642c  -6.79  -2.99
iter:   4 18:29:38   -15.237456c  -7.50c -3.29
iter:   5 18:29:39   -15.237458c  -7.70c -4.16c

Converged after 5 iterations.

Dipole moment: (-0.000000, 0.023196, 0.000010) |e|*Ang

Energy contributions relative to reference atoms: (reference = -53023.325972)

Kinetic:        +15.308367
Potential:      -13.442038
External:        +0.000000
XC:             -16.719637
Entropy (-ST):   -0.002836
Local:           -0.382732
SIC:             +0.000000
--------------------------
Free energy:    -15.238876
Extrapolated:   -15.237458

Showing only first 2 kpts
 Kpt  Band  Eigenvalues  Occupancy
  0    40     -2.79096    2.00000
  0    41     -2.08503    2.00000
  0    42     -1.33304    0.06826
  0    43     -0.81489    0.00000

  1    40     -2.43415    2.00000
  1    41     -1.73244    2.00000
  1    42     -0.98550    0.00000
  1    43     -0.47868    0.00000


Fermi level: -1.36647

No gap

Forces in eV/Ang:
  0 Na    0.00000   -0.03491    0.06602
  1 Na    0.00000    0.03617   -0.02269
  2 Na    0.00000   -0.00130   -0.02932
  3 Na    0.00000    0.00007   -0.01392
  4 Na    0.00000   -0.00021    0.00829
  5 Na    0.00000   -0.00004    0.01417
  6 Na    0.00000    0.00008   -0.01376
  7 Na    0.00000    0.00014   -0.00802
  8 Na    0.00000   -0.00003    0.01396
  9 Na    0.00000    0.00134    0.02912
 10 Na    0.00000   -0.03624    0.02243
 11 Na    0.00000    0.03495   -0.06615

System changes: positions 

Initializing position-dependent things.

Density initialized from wave functions
   .--------------.  
  /|              |  
 * |              |  
 | |              |  
 | |              |  
 | |              |  
 | |              |  
 | |              |  
 | |              |  
 | |              |  
 | |              |  
 | |              |  
 | |              |  
 | |              |  
 | |              |  
 | |              |  
 | |              |  
 | |              |  
 | |              |  
 | |      Na      |  
 | |              |  
 | |              |  
 |Na              |  
 | |              |  
 | |              |  
 |Na     Na       |  
 | |              |  
 | |              |  
 | |     Na       |  
 | |              |  
 | |              |  
 Na|              |  
 | |      Na      |  
 | |              |  
 |Na              |  
 | |              |  
 | |              |  
 | |     Na       |  
 |Na              |  
 | |              |  
 | |              |  
 | |     Na       |  
 | Na             |  
 | |              |  
 | |              |  
 | |              |  
 | |              |  
 | |              |  
 | |              |  
 | |              |  
 | |              |  
 | |              |  
 | |              |  
 | |              |  
 | |              |  
 | |              |  
 | |              |  
 | |              |  
 | |              |  
 | |              |  
 | .--------------.  
 |/              /   
 *--------------*    

Positions:
   0 Na     0.000000   -0.036800   15.069622    ( 0.0000,  0.0000,  0.0000)
   1 Na     2.965040    1.248604   16.687928    ( 0.0000,  0.0000,  0.0000)
   2 Na     0.000000    2.419590   18.392825    ( 0.0000,  0.0000,  0.0000)
   3 Na     2.965040    0.000075   20.120979    ( 0.0000,  0.0000,  0.0000)
   4 Na     0.000000    1.210246   21.856203    ( 0.0000,  0.0000,  0.0000)
   5 Na     2.965040    2.420906   23.574239    ( 0.0000,  0.0000,  0.0000)
   6 Na    -0.000000    0.000089   25.256722    ( 0.0000,  0.0000,  0.0000)
   7 Na     2.965040    1.210621   26.974603    ( 0.0000,  0.0000,  0.0000)
   8 Na    -0.000000    2.420914   28.709590    ( 0.0000,  0.0000,  0.0000)
   9 Na     2.965040    3.632822   30.437510    ( 0.0000,  0.0000,  0.0000)
  10 Na     0.000000    1.172266   32.142344    ( 0.0000,  0.0000,  0.0000)
  11 Na     2.965040    2.457793   33.760785    ( 0.0000,  0.0000,  0.0000)

Unit cell:
           periodic     x           y           z      points  spacing
  1. axis:    yes    5.930080    0.000000    0.000000    32     0.1853
  2. axis:    yes    0.000000    3.631418    0.000000    20     0.1816
  3. axis:    no     0.000000    0.000000   48.830534   252     0.1938

  Lengths:   5.930080   3.631418  48.830534
  Angles:   90.000000  90.000000  90.000000

Effective grid spacing dv^(1/3) = 0.1868

     iter     time        total  log10-change:
                         energy   eigst   dens
iter:   1 18:29:42   -16.259171   -2.30
iter:   2 18:29:43   -15.352631   -2.99  -1.42
iter:   3 18:29:44   -15.268412   -3.86  -1.96
iter:   4 18:29:45   -15.259797   -4.10  -2.22
iter:   5 18:29:47   -15.253528c  -4.40  -2.43
iter:   6 18:29:48   -15.252003c  -5.05  -2.69
iter:   7 18:29:49   -15.251088c  -5.10  -2.80
iter:   8 18:29:50   -15.250897c  -5.74  -3.00
iter:   9 18:29:51   -15.250893c  -6.12  -3.13
iter:  10 18:29:52   -15.250897c  -5.42  -3.18
iter:  11 18:29:53   -15.250898c  -6.04  -3.74
iter:  12 18:29:55   -15.250899c  -6.50  -3.78
iter:  13 18:29:56   -15.250892c  -6.84  -3.78
iter:  14 18:29:57   -15.250892c  -6.87  -3.91
iter:  15 18:29:58   -15.250892c  -7.23  -4.28c
iter:  16 18:29:59   -15.250892c  -7.61c -4.43c

Converged after 16 iterations.

Dipole moment: (-0.000000, 0.305908, 0.000019) |e|*Ang

Energy contributions relative to reference atoms: (reference = -53023.325972)

Kinetic:        +15.696882
Potential:      -13.733448
External:        +0.000000
XC:             -16.831511
Entropy (-ST):   -0.002267
Local:           -0.381682
SIC:             +0.000000
--------------------------
Free energy:    -15.252026
Extrapolated:   -15.250892

Showing only first 2 kpts
 Kpt  Band  Eigenvalues  Occupancy
  0    40     -2.79198    2.00000
  0    41     -2.07355    2.00000
  0    42     -1.31549    0.00569
  0    43     -0.81750    0.00000

  1    40     -2.43527    2.00000
  1    41     -1.72127    2.00000
  1    42     -0.96838    0.00000
  1    43     -0.48132    0.00000


Fermi level: -1.37407

No gap

Forces in eV/Ang:
  0 Na    0.00000   -0.02683    0.02752
  1 Na    0.00000    0.03243   -0.01415
  2 Na    0.00000   -0.00858    0.01448
  3 Na    0.00000    0.00032   -0.01041
  4 Na    0.00000    0.00272   -0.00865
  5 Na    0.00000    0.00106   -0.00263
  6 Na    0.00000   -0.00101    0.00265
  7 Na    0.00000   -0.00276    0.00866
  8 Na    0.00000   -0.00030    0.01043
  9 Na    0.00000    0.00858   -0.01446
 10 Na    0.00000   -0.03236    0.01409
 11 Na    0.00000    0.02681   -0.02768

System changes: positions 

Initializing position-dependent things.

Density initialized from wave functions
   .--------------.  
  /|              |  
 * |              |  
 | |              |  
 | |              |  
 | |              |  
 | |              |  
 | |              |  
 | |              |  
 | |              |  
 | |              |  
 | |              |  
 | |              |  
 | |              |  
 | |              |  
 | |              |  
 | |              |  
 | |              |  
 | |              |  
 | |      Na      |  
 | |              |  
 | |              |  
 |Na              |  
 | |              |  
 | |              |  
 |Na     Na       |  
 | |              |  
 | |              |  
 | |     Na       |  
 | |              |  
 | |              |  
 Na|              |  
 | |      Na      |  
 | |              |  
 |Na              |  
 | |              |  
 | |              |  
 | |     Na       |  
 |Na              |  
 | |              |  
 | |              |  
 | Na    Na       |  
 | |              |  
 | |              |  
 | |              |  
 | |              |  
 | |              |  
 | |              |  
 | |              |  
 | |              |  
 | |              |  
 | |              |  
 | |              |  
 | |              |  
 | |              |  
 | |              |  
 | |              |  
 | |              |  
 | |              |  
 | |              |  
 | .--------------.  
 |/              /   
 *--------------*    

Positions:
   0 Na     0.000000   -0.066441   15.125097    ( 0.0000,  0.0000,  0.0000)
   1 Na     2.965040    1.279437   16.668735    ( 0.0000,  0.0000,  0.0000)
   2 Na     0.000000    2.418301   18.368883    ( 0.0000,  0.0000,  0.0000)
   3 Na     2.965040    0.000142   20.109196    ( 0.0000,  0.0000,  0.0000)
   4 Na     0.000000    1.210139   21.862853    ( 0.0000,  0.0000,  0.0000)
   5 Na     2.965040    2.420903   23.585905    ( 0.0000,  0.0000,  0.0000)
   6 Na    -0.000000    0.000132   25.245394    ( 0.0000,  0.0000,  0.0000)
   7 Na     2.965040    1.210666   26.968169    ( 0.0000,  0.0000,  0.0000)
   8 Na    -0.000000    2.420883   28.721402    ( 0.0000,  0.0000,  0.0000)
   9 Na     2.965040    3.634150   30.461293    ( 0.0000,  0.0000,  0.0000)
  10 Na     0.000000    1.141376   32.161326    ( 0.0000,  0.0000,  0.0000)
  11 Na     2.965040    2.487471   33.705204    ( 0.0000,  0.0000,  0.0000)

Unit cell:
           periodic     x           y           z      points  spacing
  1. axis:    yes    5.930080    0.000000    0.000000    32     0.1853
  2. axis:    yes    0.000000    3.631418    0.000000    20     0.1816
  3. axis:    no     0.000000    0.000000   48.830534   252     0.1938

  Lengths:   5.930080   3.631418  48.830534
  Angles:   90.000000  90.000000  90.000000

Effective grid spacing dv^(1/3) = 0.1868

     iter     time        total  log10-change:
                         energy   eigst   dens
iter:   1 18:30:02   -15.894749   -2.49
iter:   2 18:30:03   -15.319028   -3.18  -1.52
iter:   3 18:30:04   -15.264216   -4.05  -2.07
iter:   4 18:30:05   -15.279791   -4.36  -2.35
iter:   5 18:30:06   -15.256194c  -4.65  -2.20
iter:   6 18:30:08   -15.253751c  -4.93  -2.68
iter:   7 18:30:09   -15.253594c  -5.36  -3.02
iter:   8 18:30:10   -15.253575c  -5.90  -3.17
iter:   9 18:30:11   -15.253583c  -6.17  -3.26
iter:  10 18:30:12   -15.253685c  -5.97  -3.34
iter:  11 18:30:13   -15.253581c  -6.34  -3.36
iter:  12 18:30:14   -15.253569c  -6.67  -3.67
iter:  13 18:30:16   -15.253567c  -6.82  -3.81
iter:  14 18:30:17   -15.253565c  -7.28  -4.04c
iter:  15 18:30:18   -15.253567c  -7.68c -4.11c

Converged after 15 iterations.

Dipole moment: (-0.000000, 0.530338, 0.000031) |e|*Ang

Energy contributions relative to reference atoms: (reference = -53023.325972)

Kinetic:        +16.106707
Potential:      -14.043916
External:        +0.000000
XC:             -16.932545
Entropy (-ST):   -0.002091
Local:           -0.382767
SIC:             +0.000000
--------------------------
Free energy:    -15.254612
Extrapolated:   -15.253567

Showing only first 2 kpts
 Kpt  Band  Eigenvalues  Occupancy
  0    40     -2.79447    2.00000
  0    41     -2.06640    2.00000
  0    42     -1.30339    0.00072
  0    43     -0.82290    0.00000

  1    40     -2.43784    2.00000
  1    41     -1.71436    2.00000
  1    42     -0.95663    0.00000
  1    43     -0.48676    0.00000


Fermi level: -1.38263

No gap

Forces in eV/Ang:
  0 Na    0.00000   -0.01718   -0.01060
  1 Na    0.00000    0.02775   -0.00513
  2 Na    0.00000   -0.01621    0.05538
  3 Na    0.00000    0.00062   -0.01141
  4 Na    0.00000    0.00506   -0.02056
  5 Na    0.00000    0.00186   -0.01285
  6 Na    0.00000   -0.00180    0.01259
  7 Na    0.00000   -0.00508    0.02040
  8 Na    0.00000   -0.00061    0.01142
  9 Na    0.00000    0.01618   -0.05508
 10 Na    0.00000   -0.02772    0.00530
 11 Na    0.00000    0.01708    0.01048

System changes: positions 

Initializing position-dependent things.

Density initialized from wave functions
   .--------------.  
  /|              |  
 * |              |  
 | |              |  
 | |              |  
 | |              |  
 | |              |  
 | |              |  
 | |              |  
 | |              |  
 | |              |  
 | |              |  
 | |              |  
 | |              |  
 | |              |  
 | |              |  
 | |              |  
 | |              |  
 | |              |  
 | |      Na      |  
 | |              |  
 | |              |  
 |Na              |  
 | |              |  
 | |              |  
 |Na     Na       |  
 | |              |  
 | |              |  
 | |     Na       |  
 | |              |  
 | |              |  
 Na|              |  
 | |      Na      |  
 | |              |  
 |Na              |  
 | |              |  
 | |              |  
 | |     Na       |  
 |Na              |  
 | |              |  
 | |              |  
 | Na    Na       |  
 | |              |  
 | |              |  
 | |              |  
 | |              |  
 | |              |  
 | |              |  
 | |              |  
 | |              |  
 | |              |  
 | |              |  
 | |              |  
 | |              |  
 | |              |  
 | |              |  
 | |              |  
 | |              |  
 | |              |  
 | |              |  
 | .--------------.  
 |/              /   
 *--------------*    

Positions:
   0 Na     0.000000   -0.062629   15.117392    ( 0.0000,  0.0000,  0.0000)
   1 Na     2.965040    1.275601   16.671282    ( 0.0000,  0.0000,  0.0000)
   2 Na    -0.000000    2.418263   18.372884    ( 0.0000,  0.0000,  0.0000)
   3 Na     2.965040    0.000141   20.110660    ( 0.0000,  0.0000,  0.0000)
   4 Na     0.000000    1.210221   21.861668    ( 0.0000,  0.0000,  0.0000)
   5 Na     2.965040    2.420928   23.584135    ( 0.0000,  0.0000,  0.0000)
   6 Na    -0.000000    0.000102   25.247115    ( 0.0000,  0.0000,  0.0000)
   7 Na     2.965040    1.210592   26.969321    ( 0.0000,  0.0000,  0.0000)
   8 Na    -0.000000    2.420879   28.719934    ( 0.0000,  0.0000,  0.0000)
   9 Na     2.965040    3.634183   30.457318    ( 0.0000,  0.0000,  0.0000)
  10 Na     0.000000    1.145220   32.158810    ( 0.0000,  0.0000,  0.0000)
  11 Na     2.965040    2.483652   33.712921    ( 0.0000,  0.0000,  0.0000)

Unit cell:
           periodic     x           y           z      points  spacing
  1. axis:    yes    5.930080    0.000000    0.000000    32     0.1853
  2. axis:    yes    0.000000    3.631418    0.000000    20     0.1816
  3. axis:    no     0.000000    0.000000   48.830534   252     0.1938

  Lengths:   5.930080   3.631418  48.830534
  Angles:   90.000000  90.000000  90.000000

Effective grid spacing dv^(1/3) = 0.1868

     iter     time        total  log10-change:
                         energy   eigst   dens
iter:   1 18:30:20   -15.266505   -4.12
iter:   2 18:30:22   -15.255708   -4.86  -2.35
iter:   3 18:30:23   -15.254435c  -5.65  -2.81
iter:   4 18:30:24   -15.254138c  -6.15  -3.04
iter:   5 18:30:25   -15.253827c  -5.86  -3.15
iter:   6 18:30:26   -15.253812c  -6.36  -3.63
iter:   7 18:30:27   -15.253807c  -6.96  -3.93
iter:   8 18:30:28   -15.253806c  -7.41c -4.06c

Converged after 8 iterations.

Dipole moment: (-0.000000, 0.499212, 0.000002) |e|*Ang

Energy contributions relative to reference atoms: (reference = -53023.325972)

Kinetic:        +15.942717
Potential:      -13.910627
External:        +0.000000
XC:             -16.907742
Entropy (-ST):   -0.002113
Local:           -0.377096
SIC:             +0.000000
--------------------------
Free energy:    -15.254862
Extrapolated:   -15.253806

Showing only first 2 kpts
 Kpt  Band  Eigenvalues  Occupancy
  0    40     -2.79484    2.00000
  0    41     -2.06796    2.00000
  0    42     -1.30565    0.00098
  0    43     -0.82267    0.00000

  1    40     -2.43819    2.00000
  1    41     -1.71589    2.00000
  1    42     -0.95885    0.00000
  1    43     -0.48651    0.00000


Fermi level: -1.38189

No gap

Forces in eV/Ang:
  0 Na    0.00000   -0.02019   -0.00400
  1 Na    0.00000    0.02967   -0.00645
  2 Na    0.00000   -0.01405    0.04905
  3 Na    0.00000    0.00089   -0.01092
  4 Na    0.00000    0.00430   -0.02069
  5 Na    0.00000    0.00164   -0.01373
  6 Na    0.00000   -0.00158    0.01343
  7 Na    0.00000   -0.00432    0.02058
  8 Na    0.00000   -0.00087    0.01095
  9 Na    0.00000    0.01403   -0.04878
 10 Na    0.00000   -0.02962    0.00668
 11 Na    0.00000    0.02007    0.00393

System changes: positions 

Initializing position-dependent things.

Density initialized from wave functions
   .--------------.  
  /|              |  
 * |              |  
 | |              |  
 | |              |  
 | |              |  
 | |              |  
 | |              |  
 | |              |  
 | |              |  
 | |              |  
 | |              |  
 | |              |  
 | |              |  
 | |              |  
 | |              |  
 | |              |  
 | |              |  
 | |              |  
 | |      Na      |  
 | |              |  
 | |              |  
 |Na              |  
 | |              |  
 | |              |  
 |Na     Na       |  
 | |              |  
 | |              |  
 | |     Na       |  
 | |              |  
 | |              |  
 Na|              |  
 | |      Na      |  
 | |              |  
 |Na              |  
 | |              |  
 | |              |  
 | |     Na       |  
 |Na              |  
 | |              |  
 | |              |  
 | Na    Na       |  
 | |              |  
 | |              |  
 | |              |  
 | |              |  
 | |              |  
 | |              |  
 | |              |  
 | |              |  
 | |              |  
 | |              |  
 | |              |  
 | |              |  
 | |              |  
 | |              |  
 | |              |  
 | |              |  
 | |              |  
 | |              |  
 | .--------------.  
 |/              /   
 *--------------*    

Positions:
   0 Na     0.000000   -0.061416   15.113704    ( 0.0000,  0.0000,  0.0000)
   1 Na     2.965040    1.274645   16.672281    ( 0.0000,  0.0000,  0.0000)
   2 Na    -0.000000    2.417847   18.376112    ( 0.0000,  0.0000,  0.0000)
   3 Na     2.965040    0.000163   20.111037    ( 0.0000,  0.0000,  0.0000)
   4 Na     0.000000    1.210381   21.860553    ( 0.0000,  0.0000,  0.0000)
   5 Na     2.965040    2.420986   23.582942    ( 0.0000,  0.0000,  0.0000)
   6 Na    -0.000000    0.000043   25.248276    ( 0.0000,  0.0000,  0.0000)
   7 Na     2.965040    1.210435   26.970417    ( 0.0000,  0.0000,  0.0000)
   8 Na     0.000000    2.420855   28.719555    ( 0.0000,  0.0000,  0.0000)
   9 Na     2.965040    3.634595   30.454110    ( 0.0000,  0.0000,  0.0000)
  10 Na     0.000000    1.146181   32.157833    ( 0.0000,  0.0000,  0.0000)
  11 Na     2.965040    2.482433   33.716613    ( 0.0000,  0.0000,  0.0000)

Unit cell:
           periodic     x           y           z      points  spacing
  1. axis:    yes    5.930080    0.000000    0.000000    32     0.1853
  2. axis:    yes    0.000000    3.631418    0.000000    20     0.1816
  3. axis:    no     0.000000    0.000000   48.830534   252     0.1938

  Lengths:   5.930080   3.631418  48.830534
  Angles:   90.000000  90.000000  90.000000

Effective grid spacing dv^(1/3) = 0.1868

     iter     time        total  log10-change:
                         energy   eigst   dens
iter:   1 18:30:31   -15.258303   -4.59
iter:   2 18:30:32   -15.254599   -5.33  -2.61
iter:   3 18:30:33   -15.254236c  -6.06  -3.10
iter:   4 18:30:34   -15.254370c  -6.42  -3.34
iter:   5 18:30:36   -15.254113c  -6.44  -3.23
iter:   6 18:30:37   -15.254112c  -6.88  -3.84
iter:   7 18:30:38   -15.254104c  -7.39  -4.06c
iter:   8 18:30:39   -15.254103c  -7.89c -4.32c

Converged after 8 iterations.

Dipole moment: (-0.000000, 0.487155, 0.000006) |e|*Ang

Energy contributions relative to reference atoms: (reference = -53023.325972)

Kinetic:        +15.928224
Potential:      -13.900899
External:        +0.000000
XC:             -16.901195
Entropy (-ST):   -0.002124
Local:           -0.379172
SIC:             +0.000000
--------------------------
Free energy:    -15.255165
Extrapolated:   -15.254103

Showing only first 2 kpts
 Kpt  Band  Eigenvalues  Occupancy
  0    40     -2.79511    2.00000
  0    41     -2.06861    2.00000
  0    42     -1.30661    0.00110
  0    43     -0.82253    0.00000

  1    40     -2.43845    2.00000
  1    41     -1.71651    2.00000
  1    42     -0.95979    0.00000
  1    43     -0.48638    0.00000


Fermi level: -1.38164

No gap

Forces in eV/Ang:
  0 Na    0.00000   -0.01985   -0.00168
  1 Na    0.00000    0.02881   -0.00701
  2 Na    0.00000   -0.01370    0.04532
  3 Na    0.00000    0.00096   -0.01000
  4 Na    0.00000    0.00394   -0.01863
  5 Na    0.00000    0.00154   -0.01215
  6 Na    0.00000   -0.00149    0.01197
  7 Na    0.00000   -0.00396    0.01858
  8 Na    0.00000   -0.00095    0.01004
  9 Na    0.00000    0.01368   -0.04504
 10 Na    0.00000   -0.02875    0.00716
 11 Na    0.00000    0.01973    0.00158

System changes: positions 

Initializing position-dependent things.

Density initialized from wave functions
   .--------------.  
  /|              |  
 * |              |  
 | |              |  
 | |              |  
 | |              |  
 | |              |  
 | |              |  
 | |              |  
 | |              |  
 | |              |  
 | |              |  
 | |              |  
 | |              |  
 | |              |  
 | |              |  
 | |              |  
 | |              |  
 | |              |  
 | |      Na      |  
 | |              |  
 | |              |  
 |Na              |  
 | |              |  
 | |              |  
 |Na     Na       |  
 | |              |  
 | |              |  
 | |     Na       |  
 | Na             |  
 | |              |  
 | |              |  
 | |      Na      |  
 | |              |  
 |Na              |  
 | |              |  
 | |              |  
 | |     Na       |  
 |Na              |  
 | |              |  
 | |              |  
 | Na    Na       |  
 | |              |  
 | |              |  
 | |              |  
 | |              |  
 | |              |  
 | |              |  
 | |              |  
 | |              |  
 | |              |  
 | |              |  
 | |              |  
 | |              |  
 | |              |  
 | |              |  
 | |              |  
 | |              |  
 | |              |  
 | |              |  
 | .--------------.  
 |/              /   
 *--------------*    

Positions:
   0 Na     0.000000   -0.059175   15.098832    ( 0.0000,  0.0000,  0.0000)
   1 Na     2.965040    1.274636   16.675303    ( 0.0000,  0.0000,  0.0000)
   2 Na    -0.000000    2.414333   18.394943    ( 0.0000,  0.0000,  0.0000)
   3 Na     2.965040    0.000358   20.111162    ( 0.0000,  0.0000,  0.0000)
   4 Na     0.000000    1.211564   21.853758    ( 0.0000,  0.0000,  0.0000)
   5 Na     2.965040    2.421426   23.576733    ( 0.0000,  0.0000,  0.0000)
   6 Na    -0.000000   -0.000391   25.254336    ( 0.0000,  0.0000,  0.0000)
   7 Na     2.965040    1.209262   26.977120    ( 0.0000,  0.0000,  0.0000)
   8 Na     0.000000    2.420654   28.719427    ( 0.0000,  0.0000,  0.0000)
   9 Na     2.965040    3.638093   30.435401    ( 0.0000,  0.0000,  0.0000)
  10 Na     0.000000    1.146216   32.154921    ( 0.0000,  0.0000,  0.0000)
  11 Na     2.965040    2.480154   33.731487    ( 0.0000,  0.0000,  0.0000)

Unit cell:
           periodic     x           y           z      points  spacing
  1. axis:    yes    5.930080    0.000000    0.000000    32     0.1853
  2. axis:    yes    0.000000    3.631418    0.000000    20     0.1816
  3. axis:    no     0.000000    0.000000   48.830534   252     0.1938

  Lengths:   5.930080   3.631418  48.830534
  Angles:   90.000000  90.000000  90.000000

Effective grid spacing dv^(1/3) = 0.1868

     iter     time        total  log10-change:
                         energy   eigst   dens
iter:   1 18:30:42   -15.354310   -3.23
iter:   2 18:30:43   -15.277630   -3.97  -1.91
iter:   3 18:30:44   -15.258988   -4.80  -2.28
iter:   4 18:30:45   -15.258838c  -5.01  -2.62
iter:   5 18:30:46   -15.256507c  -5.53  -2.68
iter:   6 18:30:47   -15.255665c  -5.30  -2.90
iter:   7 18:30:49   -15.255478c  -5.83  -3.23
iter:   8 18:30:50   -15.255460c  -6.40  -3.59
iter:   9 18:30:51   -15.255460c  -6.82  -3.65
iter:  10 18:30:52   -15.255454c  -6.49  -3.70
iter:  11 18:30:53   -15.255456c  -7.07  -4.23c
iter:  12 18:30:54   -15.255454c  -7.49c -4.14c

Converged after 12 iterations.

Dipole moment: (-0.000000, 0.443484, -0.000023) |e|*Ang

Energy contributions relative to reference atoms: (reference = -53023.325972)

Kinetic:        +15.772181
Potential:      -13.779993
External:        +0.000000
XC:             -16.865789
Entropy (-ST):   -0.002192
Local:           -0.380757
SIC:             +0.000000
--------------------------
Free energy:    -15.256550
Extrapolated:   -15.255454

Showing only first 2 kpts
 Kpt  Band  Eigenvalues  Occupancy
  0    40     -2.79655    2.00000
  0    41     -2.07090    2.00000
  0    42     -1.31034    0.00186
  0    43     -0.82170    0.00000

  1    40     -2.43983    2.00000
  1    41     -1.71873    2.00000
  1    42     -0.96348    0.00000
  1    43     -0.48553    0.00000


Fermi level: -1.38015

No gap

Forces in eV/Ang:
  0 Na    0.00000   -0.02173    0.01344
  1 Na    0.00000    0.02866   -0.00910
  2 Na    0.00000   -0.01113    0.02460
  3 Na    0.00000    0.00168   -0.00644
  4 Na    0.00000    0.00201   -0.00970
  5 Na    0.00000    0.00109   -0.00908
  6 Na    0.00000   -0.00104    0.00924
  7 Na    0.00000   -0.00204    0.00985
  8 Na    0.00000   -0.00166    0.00656
  9 Na    0.00000    0.01111   -0.02448
 10 Na    0.00000   -0.02861    0.00913
 11 Na    0.00000    0.02162   -0.01357

System changes: positions 

Initializing position-dependent things.

Density initialized from wave functions
   .--------------.  
  /|              |  
 * |              |  
 | |              |  
 | |              |  
 | |              |  
 | |              |  
 | |              |  
 | |              |  
 | |              |  
 | |              |  
 | |              |  
 | |              |  
 | |              |  
 | |              |  
 | |              |  
 | |              |  
 | |              |  
 | |              |  
 | |      Na      |  
 | |              |  
 | |              |  
 |Na              |  
 | |              |  
 | |              |  
 |Na     Na       |  
 | |              |  
 | |              |  
 | |     Na       |  
 | Na             |  
 | |              |  
 | |              |  
 | |      Na      |  
 | |              |  
 |Na              |  
 | |              |  
 | |              |  
 | |     Na       |  
 |Na              |  
 | |              |  
 | |              |  
 | Na    Na       |  
 | |              |  
 | |              |  
 | |              |  
 | |              |  
 | |              |  
 | |              |  
 | |              |  
 | |              |  
 | |              |  
 | |              |  
 | |              |  
 | |              |  
 | |              |  
 | |              |  
 | |              |  
 | |              |  
 | |              |  
 | |              |  
 | .--------------.  
 |/              /   
 *--------------*    

Positions:
   0 Na     0.000000   -0.065812   15.099225    ( 0.0000,  0.0000,  0.0000)
   1 Na     2.965040    1.284179   16.672790    ( 0.0000,  0.0000,  0.0000)
   2 Na    -0.000000    2.409934   18.408758    ( 0.0000,  0.0000,  0.0000)
   3 Na     2.965040    0.000611   20.107683    ( 0.0000,  0.0000,  0.0000)
   4 Na     0.000000    1.212860   21.848212    ( 0.0000,  0.0000,  0.0000)
   5 Na     2.965040    2.421923   23.573315    ( 0.0000,  0.0000,  0.0000)
   6 Na    -0.000000   -0.000869   25.257694    ( 0.0000,  0.0000,  0.0000)
   7 Na     2.965040    1.207957   26.982629    ( 0.0000,  0.0000,  0.0000)
   8 Na     0.000000    2.420407   28.722912    ( 0.0000,  0.0000,  0.0000)
   9 Na     2.965040    3.642486   30.421673    ( 0.0000,  0.0000,  0.0000)
  10 Na     0.000000    1.136684   32.157492    ( 0.0000,  0.0000,  0.0000)
  11 Na     2.965040    2.486759   33.731064    ( 0.0000,  0.0000,  0.0000)

Unit cell:
           periodic     x           y           z      points  spacing
  1. axis:    yes    5.930080    0.000000    0.000000    32     0.1853
  2. axis:    yes    0.000000    3.631418    0.000000    20     0.1816
  3. axis:    no     0.000000    0.000000   48.830534   252     0.1938

  Lengths:   5.930080   3.631418  48.830534
  Angles:   90.000000  90.000000  90.000000

Effective grid spacing dv^(1/3) = 0.1868

     iter     time        total  log10-change:
                         energy   eigst   dens
iter:   1 18:30:57   -15.270638   -3.57
iter:   2 18:30:58   -15.261801   -4.50  -2.37
iter:   3 18:30:59   -15.261850c  -5.11  -2.59
iter:   4 18:31:00   -15.259200c  -5.53  -2.59
iter:   5 18:31:01   -15.257207c  -5.46  -2.76
iter:   6 18:31:03   -15.257127c  -5.78  -3.22
iter:   7 18:31:04   -15.257024c  -6.28  -3.41
iter:   8 18:31:05   -15.257020c  -6.83  -3.73
iter:   9 18:31:06   -15.257024c  -6.86  -3.77
iter:  10 18:31:07   -15.257025c  -7.13  -4.07c
iter:  11 18:31:08   -15.257022c  -7.48c -4.14c

Converged after 11 iterations.

Dipole moment: (-0.000000, 0.462131, 0.000194) |e|*Ang

Energy contributions relative to reference atoms: (reference = -53023.325972)

Kinetic:        +15.800723
Potential:      -13.808086
External:        +0.000000
XC:             -16.866955
Entropy (-ST):   -0.002232
Local:           -0.381587
SIC:             +0.000000
--------------------------
Free energy:    -15.258138
Extrapolated:   -15.257022

Showing only first 2 kpts
 Kpt  Band  Eigenvalues  Occupancy
  0    40     -2.79910    2.00000
  0    41     -2.07154    2.00000
  0    42     -1.31109    0.00178
  0    43     -0.82284    0.00000

  1    40     -2.44235    2.00000
  1    41     -1.71935    2.00000
  1    42     -0.96429    0.00000
  1    43     -0.48666    0.00000


Fermi level: -1.38131

No gap

Forces in eV/Ang:
  0 Na    0.00000   -0.02118    0.01884
  1 Na    0.00000    0.02713   -0.00813
  2 Na    0.00000   -0.00994    0.01127
  3 Na    0.00000    0.00268   -0.00621
  4 Na    0.00000    0.00011   -0.00089
  5 Na    0.00000    0.00067   -0.00494
  6 Na    0.00000   -0.00063    0.00501
  7 Na    0.00000   -0.00014    0.00087
  8 Na    0.00000   -0.00267    0.00598
  9 Na    0.00000    0.00990   -0.01168
 10 Na    0.00000   -0.02715    0.00768
 11 Na    0.00000    0.02109   -0.01912

System changes: positions 

Initializing position-dependent things.

Density initialized from wave functions
   .--------------.  
  /|              |  
 * |              |  
 | |              |  
 | |              |  
 | |              |  
 | |              |  
 | |              |  
 | |              |  
 | |              |  
 | |              |  
 | |              |  
 | |              |  
 | |              |  
 | |              |  
 | |              |  
 | |              |  
 | |              |  
 | |              |  
 | |      Na      |  
 | |              |  
 | |              |  
 |Na              |  
 | |              |  
 | |              |  
 |Na     Na       |  
 | |              |  
 | |              |  
 | |     Na       |  
 | Na             |  
 | |              |  
 | |              |  
 | |      Na      |  
 | |              |  
 | |              |  
 |Na              |  
 | |              |  
 | |     Na       |  
 |Na              |  
 | |              |  
 | |              |  
 | Na    Na       |  
 | |              |  
 | |              |  
 | |              |  
 | |              |  
 | |              |  
 | |              |  
 | |              |  
 | |              |  
 | |              |  
 | |              |  
 | |              |  
 | |              |  
 | |              |  
 | |              |  
 | |              |  
 | |              |  
 | |              |  
 | |              |  
 | .--------------.  
 |/              /   
 *--------------*    

Positions:
   0 Na     0.000000   -0.105531   15.129132    ( 0.0000,  0.0000,  0.0000)
   1 Na     2.965040    1.335295   16.653747    ( 0.0000,  0.0000,  0.0000)
   2 Na    -0.000000    2.392934   18.447352    ( 0.0000,  0.0000,  0.0000)
   3 Na     2.965040    0.001635   20.088733    ( 0.0000,  0.0000,  0.0000)
   4 Na     0.000000    1.217538   21.831444    ( 0.0000,  0.0000,  0.0000)
   5 Na     2.965040    2.423752   23.566754    ( 0.0000,  0.0000,  0.0000)
   6 Na    -0.000000   -0.002609   25.264198    ( 0.0000,  0.0000,  0.0000)
   7 Na     2.965040    1.203215   26.999365    ( 0.0000,  0.0000,  0.0000)
   8 Na     0.000000    2.419418   28.741883    ( 0.0000,  0.0000,  0.0000)
   9 Na     2.965040    3.659482   30.383292    ( 0.0000,  0.0000,  0.0000)
  10 Na     0.000000    1.085574   32.176623    ( 0.0000,  0.0000,  0.0000)
  11 Na     2.965040    2.526381   33.700981    ( 0.0000,  0.0000,  0.0000)

Unit cell:
           periodic     x           y           z      points  spacing
  1. axis:    yes    5.930080    0.000000    0.000000    32     0.1853
  2. axis:    yes    0.000000    3.631418    0.000000    20     0.1816
  3. axis:    no     0.000000    0.000000   48.830534   252     0.1938

  Lengths:   5.930080   3.631418  48.830534
  Angles:   90.000000  90.000000  90.000000

Effective grid spacing dv^(1/3) = 0.1868

     iter     time        total  log10-change:
                         energy   eigst   dens
iter:   1 18:31:11   -15.325935   -2.59
iter:   2 18:31:12   -15.291241   -3.67  -2.03
iter:   3 18:31:13   -15.290854c  -4.17  -2.17
iter:   4 18:31:14   -15.280666c  -4.49  -2.19
iter:   5 18:31:15   -15.262325c  -4.84  -2.26
iter:   6 18:31:17   -15.262060c  -5.39  -2.87
iter:   7 18:31:18   -15.262002c  -5.23  -2.97
iter:   8 18:31:19   -15.262012c  -5.86  -3.18
iter:   9 18:31:20   -15.262097c  -5.57  -3.21
iter:  10 18:31:21   -15.262088c  -6.02  -3.65
iter:  11 18:31:22   -15.262083c  -6.48  -3.88
iter:  12 18:31:23   -15.262081c  -6.85  -4.00c
iter:  13 18:31:25   -15.262080c  -7.10  -4.07c
iter:  14 18:31:26   -15.262078c  -7.24  -4.21c
iter:  15 18:31:27   -15.262079c  -7.62c -4.58c

Converged after 15 iterations.

Dipole moment: (-0.000000, 0.631503, -0.000056) |e|*Ang

Energy contributions relative to reference atoms: (reference = -53023.325972)

Kinetic:        +15.934694
Potential:      -13.911730
External:        +0.000000
XC:             -16.902282
Entropy (-ST):   -0.002262
Local:           -0.381629
SIC:             +0.000000
--------------------------
Free energy:    -15.263210
Extrapolated:   -15.262079

Showing only first 2 kpts
 Kpt  Band  Eigenvalues  Occupancy
  0    40     -2.81116    2.00000
  0    41     -2.07155    2.00000
  0    42     -1.30904    0.00053
  0    43     -0.83135    0.00000

  1    40     -2.45430    2.00000
  1    41     -1.71944    2.00000
  1    42     -0.96265    0.00000
  1    43     -0.49517    0.00000


Fermi level: -1.39132

No gap

Forces in eV/Ang:
  0 Na    0.00000   -0.01355    0.01745
  1 Na    0.00000    0.01934   -0.00104
  2 Na    0.00000   -0.00965   -0.01251
  3 Na    0.00000    0.00685   -0.00154
  4 Na    0.00000   -0.00591    0.02209
  5 Na    0.00000   -0.00012   -0.00039
  6 Na    0.00000    0.00016    0.00037
  7 Na    0.00000    0.00589   -0.02219
  8 Na    0.00000   -0.00684    0.00149
  9 Na    0.00000    0.00961    0.01247
 10 Na    0.00000   -0.01928    0.00130
 11 Na    0.00000    0.01359   -0.01711

System changes: positions 

Initializing position-dependent things.

Density initialized from wave functions
   .--------------.  
  /|              |  
 * |              |  
 | |              |  
 | |              |  
 | |              |  
 | |              |  
 | |              |  
 | |              |  
 | |              |  
 | |              |  
 | |              |  
 | |              |  
 | |              |  
 | |              |  
 | |              |  
 | |              |  
 | |              |  
 | |              |  
 | |      Na      |  
 | |              |  
 | |              |  
 |Na              |  
 | |              |  
 | |              |  
 |Na     Na       |  
 | |              |  
 | |              |  
 | |     Na       |  
 | Na             |  
 | |              |  
 | |              |  
 | |      Na      |  
 | |              |  
 | |              |  
 |Na              |  
 | |              |  
 | |     Na       |  
 |Na              |  
 | |              |  
 | |              |  
 | Na    Na       |  
 | |              |  
 | |              |  
 | |              |  
 | |              |  
 | |              |  
 | |              |  
 | |              |  
 | |              |  
 | |              |  
 | |              |  
 | |              |  
 | |              |  
 | |              |  
 | |              |  
 | |              |  
 | |              |  
 | |              |  
 | |              |  
 | .--------------.  
 |/              /   
 *--------------*    

Positions:
   0 Na     0.000000   -0.139072   15.164962    ( 0.0000,  0.0000,  0.0000)
   1 Na     2.965040    1.376214   16.636191    ( 0.0000,  0.0000,  0.0000)
   2 Na    -0.000000    2.382075   18.462886    ( 0.0000,  0.0000,  0.0000)
   3 Na     2.965040    0.002394   20.073508    ( 0.0000,  0.0000,  0.0000)
   4 Na     0.000000    1.220225   21.823862    ( 0.0000,  0.0000,  0.0000)
   5 Na     2.965040    2.424854   23.566512    ( 0.0000,  0.0000,  0.0000)
   6 Na    -0.000000   -0.003644   25.264512    ( 0.0000,  0.0000,  0.0000)
   7 Na     2.965040    1.200469   27.006995    ( 0.0000,  0.0000,  0.0000)
   8 Na     0.000000    2.418692   28.757133    ( 0.0000,  0.0000,  0.0000)
   9 Na     2.965040    3.670351   30.367843    ( 0.0000,  0.0000,  0.0000)
  10 Na     0.000000    1.044641   32.194179    ( 0.0000,  0.0000,  0.0000)
  11 Na     2.965040    2.559876   33.665022    ( 0.0000,  0.0000,  0.0000)

Unit cell:
           periodic     x           y           z      points  spacing
  1. axis:    yes    5.930080    0.000000    0.000000    32     0.1853
  2. axis:    yes    0.000000    3.631418    0.000000    20     0.1816
  3. axis:    no     0.000000    0.000000   48.830534   252     0.1938

  Lengths:   5.930080   3.631418  48.830534
  Angles:   90.000000  90.000000  90.000000

Effective grid spacing dv^(1/3) = 0.1868

     iter     time        total  log10-change:
                         energy   eigst   dens
iter:   1 18:31:29   -15.366556   -2.84
iter:   2 18:31:31   -15.281412   -3.74  -1.94
iter:   3 18:31:32   -15.267866   -4.46  -2.31
iter:   4 18:31:33   -15.264237c  -4.67  -2.55
iter:   5 18:31:34   -15.263894c  -5.30  -2.93
iter:   6 18:31:35   -15.263770c  -5.70  -3.01
iter:   7 18:31:36   -15.263926c  -5.44  -3.14
iter:   8 18:31:38   -15.263937c  -5.95  -3.41
iter:   9 18:31:39   -15.263909c  -5.99  -3.49
iter:  10 18:31:40   -15.263912c  -6.44  -3.95
iter:  11 18:31:41   -15.263917c  -6.87  -4.00c
iter:  12 18:31:42   -15.263906c  -7.24  -3.88
iter:  13 18:31:43   -15.263904c  -7.57c -4.13c

Converged after 13 iterations.

Dipole moment: (-0.000000, 0.782560, 0.000029) |e|*Ang

Energy contributions relative to reference atoms: (reference = -53023.325972)

Kinetic:        +16.171323
Potential:      -14.093759
External:        +0.000000
XC:             -16.958219
Entropy (-ST):   -0.002143
Local:           -0.382177
SIC:             +0.000000
--------------------------
Free energy:    -15.264975
Extrapolated:   -15.263904

Showing only first 2 kpts
 Kpt  Band  Eigenvalues  Occupancy
  0    40     -2.81904    2.00000
  0    41     -2.06928    2.00000
  0    42     -1.30412    0.00014
  0    43     -0.83815    0.00000

  1    40     -2.46213    2.00000
  1    41     -1.71728    2.00000
  1    42     -0.95809    0.00000
  1    43     -0.50199    0.00000


Fermi level: -1.39996

No gap

Forces in eV/Ang:
  0 Na    0.00000   -0.00333    0.00583
  1 Na    0.00000    0.01071    0.00618
  2 Na    0.00000   -0.01232   -0.01574
  3 Na    0.00000    0.00955    0.00181
  4 Na    0.00000   -0.00904    0.03210
  5 Na    0.00000   -0.00048   -0.00188
  6 Na    0.00000    0.00051    0.00169
  7 Na    0.00000    0.00905   -0.03215
  8 Na    0.00000   -0.00954   -0.00183
  9 Na    0.00000    0.01229    0.01547
 10 Na    0.00000   -0.01076   -0.00623
 11 Na    0.00000    0.00326   -0.00561

System changes: positions 

Initializing position-dependent things.

Density initialized from wave functions
   .--------------.  
  /|              |  
 * |              |  
 | |              |  
 | |              |  
 | |              |  
 | |              |  
 | |              |  
 | |              |  
 | |              |  
 | |              |  
 | |              |  
 | |              |  
 | |              |  
 | |              |  
 | |              |  
 | |              |  
 | |              |  
 | |              |  
 | |      Na      |  
 | |              |  
 | |              |  
 |Na              |  
 | |              |  
 | |              |  
 |Na     Na       |  
 | |              |  
 | |              |  
 | |     Na       |  
 | Na             |  
 | |              |  
 | |              |  
 | |      Na      |  
 | |              |  
 | |              |  
 |Na              |  
 | |              |  
 | |     Na       |  
 |Na              |  
 | |              |  
 | |              |  
 | Na    Na       |  
 | |              |  
 | |              |  
 | |              |  
 | |              |  
 | |              |  
 | |              |  
 | |              |  
 | |              |  
 | |              |  
 | |              |  
 | |              |  
 | |              |  
 | |              |  
 | |              |  
 | |              |  
 | |              |  
 | |              |  
 | |              |  
 | .--------------.  
 |/              /   
 *--------------*    

Positions:
   0 Na     0.000000   -0.145059   15.177098    ( 0.0000,  0.0000,  0.0000)
   1 Na     2.965040    1.382373   16.632317    ( 0.0000,  0.0000,  0.0000)
   2 Na    -0.000000    2.381912   18.456345    ( 0.0000,  0.0000,  0.0000)
   3 Na     2.965040    0.002551   20.071225    ( 0.0000,  0.0000,  0.0000)
   4 Na     0.000000    1.219950   21.826306    ( 0.0000,  0.0000,  0.0000)
   5 Na     2.965040    2.424808   23.569301    ( 0.0000,  0.0000,  0.0000)
   6 Na    -0.000000   -0.003590   25.261799    ( 0.0000,  0.0000,  0.0000)
   7 Na     2.965040    1.200731   27.004599    ( 0.0000,  0.0000,  0.0000)
   8 Na     0.000000    2.418543   28.759422    ( 0.0000,  0.0000,  0.0000)
   9 Na     2.965040    3.670522   30.374341    ( 0.0000,  0.0000,  0.0000)
  10 Na     0.000000    1.038468   32.198005    ( 0.0000,  0.0000,  0.0000)
  11 Na     2.965040    2.565873   33.652871    ( 0.0000,  0.0000,  0.0000)

Unit cell:
           periodic     x           y           z      points  spacing
  1. axis:    yes    5.930080    0.000000    0.000000    32     0.1853
  2. axis:    yes    0.000000    3.631418    0.000000    20     0.1816
  3. axis:    no     0.000000    0.000000   48.830534   252     0.1938

  Lengths:   5.930080   3.631418  48.830534
  Angles:   90.000000  90.000000  90.000000

Effective grid spacing dv^(1/3) = 0.1868

     iter     time        total  log10-change:
                         energy   eigst   dens
iter:   1 18:31:46   -15.296279   -3.73
iter:   2 18:31:47   -15.270789   -4.42  -2.14
iter:   3 18:31:48   -15.265336c  -5.25  -2.58
iter:   4 18:31:49   -15.265058c  -5.75  -2.89
iter:   5 18:31:50   -15.264388c  -5.55  -2.94
iter:   6 18:31:52   -15.264271c  -6.17  -3.25
iter:   7 18:31:53   -15.264264c  -6.50  -3.56
iter:   8 18:31:54   -15.264268c  -7.00  -3.82
iter:   9 18:31:55   -15.264273c  -6.84  -3.86
iter:  10 18:31:56   -15.264269c  -7.27  -3.95
iter:  11 18:31:58   -15.264268c  -7.71c -4.46c

Converged after 11 iterations.

Dipole moment: (-0.000000, 0.819281, 0.000010) |e|*Ang

Energy contributions relative to reference atoms: (reference = -53023.325972)

Kinetic:        +16.232982
Potential:      -14.137714
External:        +0.000000
XC:             -16.976139
Entropy (-ST):   -0.002046
Local:           -0.382375
SIC:             +0.000000
--------------------------
Free energy:    -15.265291
Extrapolated:   -15.264268

Showing only first 2 kpts
 Kpt  Band  Eigenvalues  Occupancy
  0    40     -2.82057    2.00000
  0    41     -2.06902    2.00000
  0    42     -1.30268    0.00009
  0    43     -0.84052    0.00000

  1    40     -2.46369    2.00000
  1    41     -1.71706    2.00000
  1    42     -0.95672    0.00000
  1    43     -0.50436    0.00000


Fermi level: -1.40326

No gap

Forces in eV/Ang:
  0 Na    0.00000    0.00020   -0.00481
  1 Na    0.00000    0.00851    0.00730
  2 Na    0.00000   -0.01440   -0.00449
  3 Na    0.00000    0.00968    0.00268
  4 Na    0.00000   -0.00832    0.02849
  5 Na    0.00000   -0.00022   -0.00429
  6 Na    0.00000    0.00025    0.00412
  7 Na    0.00000    0.00833   -0.02848
  8 Na    0.00000   -0.00968   -0.00270
  9 Na    0.00000    0.01437    0.00430
 10 Na    0.00000   -0.00858   -0.00718
 11 Na    0.00000   -0.00029    0.00509

System changes: positions 

Initializing position-dependent things.

Density initialized from wave functions
   .--------------.  
  /|              |  
 * |              |  
 | |              |  
 | |              |  
 | |              |  
 | |              |  
 | |              |  
 | |              |  
 | |              |  
 | |              |  
 | |              |  
 | |              |  
 | |              |  
 | |              |  
 | |              |  
 | |              |  
 | |              |  
 | |              |  
 | |      Na      |  
 | |              |  
 | |              |  
 |Na              |  
 | |              |  
 | |              |  
 |Na     Na       |  
 | |              |  
 | |              |  
 | |     Na       |  
 | Na             |  
 | |              |  
 | |              |  
 | |      Na      |  
 | |              |  
 | |              |  
 |Na              |  
 | |              |  
 | |     Na       |  
 |Na              |  
 | |              |  
 | |              |  
 | Na    Na       |  
 | |              |  
 | |              |  
 | |              |  
 | |              |  
 | |              |  
 | |              |  
 | |              |  
 | |              |  
 | |              |  
 | |              |  
 | |              |  
 | |              |  
 | |              |  
 | |              |  
 | |              |  
 | |              |  
 | |              |  
 | |              |  
 | .--------------.  
 |/              /   
 *--------------*    

Positions:
   0 Na     0.000000   -0.142036   15.176373    ( 0.0000,  0.0000,  0.0000)
   1 Na     2.965040    1.378282   16.633652    ( 0.0000,  0.0000,  0.0000)
   2 Na    -0.000000    2.383504   18.450732    ( 0.0000,  0.0000,  0.0000)
   3 Na     2.965040    0.002613   20.072828    ( 0.0000,  0.0000,  0.0000)
   4 Na     0.000000    1.219268   21.829040    ( 0.0000,  0.0000,  0.0000)
   5 Na     2.965040    2.424598   23.570538    ( 0.0000,  0.0000,  0.0000)
   6 Na    -0.000000   -0.003387   25.260582    ( 0.0000,  0.0000,  0.0000)
   7 Na     2.965040    1.201417   27.001880    ( 0.0000,  0.0000,  0.0000)
   8 Na     0.000000    2.418479   28.757818    ( 0.0000,  0.0000,  0.0000)
   9 Na     2.965040    3.668932   30.379918    ( 0.0000,  0.0000,  0.0000)
  10 Na     0.000000    1.042554   32.196652    ( 0.0000,  0.0000,  0.0000)
  11 Na     2.965040    2.562862   33.653615    ( 0.0000,  0.0000,  0.0000)

Unit cell:
           periodic     x           y           z      points  spacing
  1. axis:    yes    5.930080    0.000000    0.000000    32     0.1853
  2. axis:    yes    0.000000    3.631418    0.000000    20     0.1816
  3. axis:    no     0.000000    0.000000   48.830534   252     0.1938

  Lengths:   5.930080   3.631418  48.830534
  Angles:   90.000000  90.000000  90.000000

Effective grid spacing dv^(1/3) = 0.1868

     iter     time        total  log10-change:
                         energy   eigst   dens
iter:   1 18:32:00   -15.266062   -4.33
iter:   2 18:32:01   -15.264997   -5.31  -2.80
iter:   3 18:32:02   -15.264932c  -5.88  -3.04
iter:   4 18:32:04   -15.264806c  -6.26  -3.04
iter:   5 18:32:05   -15.264346c  -6.28  -3.09
iter:   6 18:32:06   -15.264347c  -6.52  -3.65
iter:   7 18:32:07   -15.264341c  -7.22  -4.04c
iter:   8 18:32:08   -15.264341c  -7.66c -4.12c

Converged after 8 iterations.

Dipole moment: (-0.000000, 0.809229, 0.000009) |e|*Ang

Energy contributions relative to reference atoms: (reference = -53023.325972)

Kinetic:        +16.183021
Potential:      -14.093282
External:        +0.000000
XC:             -16.970533
Entropy (-ST):   -0.002032
Local:           -0.382531
SIC:             +0.000000
--------------------------
Free energy:    -15.265357
Extrapolated:   -15.264341

Showing only first 2 kpts
 Kpt  Band  Eigenvalues  Occupancy
  0    40     -2.81925    2.00000
  0    41     -2.06867    2.00000
  0    42     -1.30230    0.00009
  0    43     -0.83972    0.00000

  1    40     -2.46238    2.00000
  1    41     -1.71672    2.00000
  1    42     -0.95631    0.00000
  1    43     -0.50357    0.00000


Fermi level: -1.40253

No gap

Forces in eV/Ang:
  0 Na    0.00000   -0.00114   -0.00634
  1 Na    0.00000    0.01090    0.00629
  2 Na    0.00000   -0.01550    0.00247
  3 Na    0.00000    0.00894    0.00341
  4 Na    0.00000   -0.00647    0.02291
  5 Na    0.00000    0.00032   -0.00893
  6 Na    0.00000   -0.00028    0.00881
  7 Na    0.00000    0.00649   -0.02291
  8 Na    0.00000   -0.00893   -0.00336
  9 Na    0.00000    0.01546   -0.00261
 10 Na    0.00000   -0.01094   -0.00624
 11 Na    0.00000    0.00104    0.00656

System changes: positions 

Initializing position-dependent things.

Density initialized from wave functions
   .--------------.  
  /|              |  
 * |              |  
 | |              |  
 | |              |  
 | |              |  
 | |              |  
 | |              |  
 | |              |  
 | |              |  
 | |              |  
 | |              |  
 | |              |  
 | |              |  
 | |              |  
 | |              |  
 | |              |  
 | |              |  
 | |              |  
 | |      Na      |  
 | |              |  
 | |              |  
 |Na              |  
 | |              |  
 | |              |  
 |Na     Na       |  
 | |              |  
 | |              |  
 | |     Na       |  
 | Na             |  
 | |              |  
 | |              |  
 | |      Na      |  
 | |              |  
 | |              |  
 |Na              |  
 | |              |  
 | |     Na       |  
 |Na              |  
 | |              |  
 | |              |  
 | Na    Na       |  
 | |              |  
 | |              |  
 | |              |  
 | |              |  
 | |              |  
 | |              |  
 | |              |  
 | |              |  
 | |              |  
 | |              |  
 | |              |  
 | |              |  
 | |              |  
 | |              |  
 | |              |  
 | |              |  
 | |              |  
 | |              |  
 | .--------------.  
 |/              /   
 *--------------*    

Positions:
   0 Na     0.000000   -0.143262   15.177354    ( 0.0000,  0.0000,  0.0000)
   1 Na     2.965040    1.380003   16.633181    ( 0.0000,  0.0000,  0.0000)
   2 Na    -0.000000    2.382746   18.451611    ( 0.0000,  0.0000,  0.0000)
   3 Na     2.965040    0.002826   20.072324    ( 0.0000,  0.0000,  0.0000)
   4 Na     0.000000    1.219246   21.829141    ( 0.0000,  0.0000,  0.0000)
   5 Na     2.965040    2.424648   23.570286    ( 0.0000,  0.0000,  0.0000)
   6 Na    -0.000000   -0.003434   25.260831    ( 0.0000,  0.0000,  0.0000)
   7 Na     2.965040    1.201438   27.001780    ( 0.0000,  0.0000,  0.0000)
   8 Na     0.000000    2.418267   28.758324    ( 0.0000,  0.0000,  0.0000)
   9 Na     2.965040    3.669690   30.379041    ( 0.0000,  0.0000,  0.0000)
  10 Na     0.000000    1.040832   32.197126    ( 0.0000,  0.0000,  0.0000)
  11 Na     2.965040    2.564083   33.652635    ( 0.0000,  0.0000,  0.0000)

Unit cell:
           periodic     x           y           z      points  spacing
  1. axis:    yes    5.930080    0.000000    0.000000    32     0.1853
  2. axis:    yes    0.000000    3.631418    0.000000    20     0.1816
  3. axis:    no     0.000000    0.000000   48.830534   252     0.1938

  Lengths:   5.930080   3.631418  48.830534
  Angles:   90.000000  90.000000  90.000000

Effective grid spacing dv^(1/3) = 0.1868

     iter     time        total  log10-change:
                         energy   eigst   dens
iter:   1 18:32:11   -15.264395   -5.63
iter:   2 18:32:12   -15.264396   -6.58  -3.75
iter:   3 18:32:13   -15.264396c  -7.12  -3.84
iter:   4 18:32:14   -15.264388c  -7.43c -3.86
iter:   5 18:32:15   -15.264388c  -7.96c -4.41c

Converged after 5 iterations.

Dipole moment: (-0.000000, 0.810604, -0.000014) |e|*Ang

Energy contributions relative to reference atoms: (reference = -53023.325972)

Kinetic:        +16.193828
Potential:      -14.102606
External:        +0.000000
XC:             -16.972336
Entropy (-ST):   -0.002034
Local:           -0.382257
SIC:             +0.000000
--------------------------
Free energy:    -15.265405
Extrapolated:   -15.264388

Showing only first 2 kpts
 Kpt  Band  Eigenvalues  Occupancy
  0    40     -2.81992    2.00000
  0    41     -2.06905    2.00000
  0    42     -1.30253    0.00009
  0    43     -0.84043    0.00000

  1    40     -2.46305    2.00000
  1    41     -1.71709    2.00000
  1    42     -0.95656    0.00000
  1    43     -0.50428    0.00000


Fermi level: -1.40316

No gap

Forces in eV/Ang:
  0 Na    0.00000    0.00081   -0.00676
  1 Na    0.00000    0.00773    0.00624
  2 Na    0.00000   -0.01450    0.00046
  3 Na    0.00000    0.00934    0.00350
  4 Na    0.00000   -0.00776    0.02416
  5 Na    0.00000    0.00007   -0.00584
  6 Na    0.00000   -0.00004    0.00558
  7 Na    0.00000    0.00778   -0.02425
  8 Na    0.00000   -0.00934   -0.00349
  9 Na    0.00000    0.01446   -0.00058
 10 Na    0.00000   -0.00778   -0.00609
 11 Na    0.00000   -0.00091    0.00707

System changes: positions 

Initializing position-dependent things.

Density initialized from wave functions
   .--------------.  
  /|              |  
 * |              |  
 | |              |  
 | |              |  
 | |              |  
 | |              |  
 | |              |  
 | |              |  
 | |              |  
 | |              |  
 | |              |  
 | |              |  
 | |              |  
 | |              |  
 | |              |  
 | |              |  
 | |              |  
 | |              |  
 | |      Na      |  
 | |              |  
 | |              |  
 |Na              |  
 | |              |  
 | |              |  
 |Na     Na       |  
 | |              |  
 | |              |  
 | |     Na       |  
 | Na             |  
 | |              |  
 | |              |  
 | |      Na      |  
 | |              |  
 | |              |  
 |Na              |  
 | |              |  
 | |     Na       |  
 |Na              |  
 | |              |  
 | |              |  
 | Na    Na       |  
 | |              |  
 | |              |  
 | |              |  
 | |              |  
 | |              |  
 | |              |  
 | |              |  
 | |              |  
 | |              |  
 | |              |  
 | |              |  
 | |              |  
 | |              |  
 | |              |  
 | |              |  
 | |              |  
 | |              |  
 | |              |  
 | .--------------.  
 |/              /   
 *--------------*    

Positions:
   0 Na     0.000000   -0.144923   15.177584    ( 0.0000,  0.0000,  0.0000)
   1 Na     2.965040    1.383877   16.633715    ( 0.0000,  0.0000,  0.0000)
   2 Na    -0.000000    2.379202   18.452776    ( 0.0000,  0.0000,  0.0000)
   3 Na     2.965040    0.004686   20.072199    ( 0.0000,  0.0000,  0.0000)
   4 Na     0.000000    1.217965   21.833507    ( 0.0000,  0.0000,  0.0000)
   5 Na     2.965040    2.424730   23.568771    ( 0.0000,  0.0000,  0.0000)
   6 Na    -0.000000   -0.003506   25.262312    ( 0.0000,  0.0000,  0.0000)
   7 Na     2.965040    1.202720   26.997412    ( 0.0000,  0.0000,  0.0000)
   8 Na     0.000000    2.416409   28.758453    ( 0.0000,  0.0000,  0.0000)
   9 Na     2.965040    3.673226   30.377852    ( 0.0000,  0.0000,  0.0000)
  10 Na     0.000000    1.036948   32.196610    ( 0.0000,  0.0000,  0.0000)
  11 Na     2.965040    2.565723   33.652447    ( 0.0000,  0.0000,  0.0000)

Unit cell:
           periodic     x           y           z      points  spacing
  1. axis:    yes    5.930080    0.000000    0.000000    32     0.1853
  2. axis:    yes    0.000000    3.631418    0.000000    20     0.1816
  3. axis:    no     0.000000    0.000000   48.830534   252     0.1938

  Lengths:   5.930080   3.631418  48.830534
  Angles:   90.000000  90.000000  90.000000

Effective grid spacing dv^(1/3) = 0.1868

     iter     time        total  log10-change:
                         energy   eigst   dens
iter:   1 18:32:18   -15.269573   -4.51
iter:   2 18:32:19   -15.265347   -5.25  -2.61
iter:   3 18:32:20   -15.264909c  -6.06  -3.05
iter:   4 18:32:21   -15.264879c  -6.36  -3.51
iter:   5 18:32:23   -15.264828c  -6.95  -3.54
iter:   6 18:32:24   -15.264833c  -7.38  -3.94
iter:   7 18:32:25   -15.264834c  -7.32  -4.03c
iter:   8 18:32:26   -15.264834c  -7.87c -4.26c

Converged after 8 iterations.

Dipole moment: (-0.000000, 0.778147, 0.000012) |e|*Ang

Energy contributions relative to reference atoms: (reference = -53023.325972)

Kinetic:        +16.189946
Potential:      -14.099801
External:        +0.000000
XC:             -16.972283
Entropy (-ST):   -0.002034
Local:           -0.381680
SIC:             +0.000000
--------------------------
Free energy:    -15.265851
Extrapolated:   -15.264834

Showing only first 2 kpts
 Kpt  Band  Eigenvalues  Occupancy
  0    40     -2.81994    2.00000
  0    41     -2.06966    2.00000
  0    42     -1.30285    0.00009
  0    43     -0.84110    0.00000

  1    40     -2.46308    2.00000
  1    41     -1.71769    2.00000
  1    42     -0.95691    0.00000
  1    43     -0.50495    0.00000


Fermi level: -1.40341

No gap

Forces in eV/Ang:
  0 Na    0.00000    0.00115   -0.00694
  1 Na    0.00000    0.00695    0.00485
  2 Na    0.00000   -0.01367    0.00279
  3 Na    0.00000    0.00887    0.00384
  4 Na    0.00000   -0.00732    0.01983
  5 Na    0.00000    0.00104   -0.00667
  6 Na    0.00000   -0.00102    0.00658
  7 Na    0.00000    0.00734   -0.01987
  8 Na    0.00000   -0.00888   -0.00385
  9 Na    0.00000    0.01365   -0.00293
 10 Na    0.00000   -0.00701   -0.00485
 11 Na    0.00000   -0.00123    0.00710

System changes: positions 

Initializing position-dependent things.

Density initialized from wave functions
   .--------------.  
  /|              |  
 * |              |  
 | |              |  
 | |              |  
 | |              |  
 | |              |  
 | |              |  
 | |              |  
 | |              |  
 | |              |  
 | |              |  
 | |              |  
 | |              |  
 | |              |  
 | |              |  
 | |              |  
 | |              |  
 | |              |  
 | |      Na      |  
 | |              |  
 | |              |  
 |Na              |  
 | |              |  
 | |              |  
 |Na     Na       |  
 | |              |  
 | |              |  
 | |     Na       |  
 | Na             |  
 | |              |  
 | |              |  
 | |      Na      |  
 | |              |  
 |Na              |  
 | |              |  
 | |              |  
 | |     Na       |  
 |Na              |  
 | |              |  
 | |              |  
 | Na    Na       |  
 | |              |  
 | |              |  
 | |              |  
 | |              |  
 | |              |  
 | |              |  
 | |              |  
 | |              |  
 | |              |  
 | |              |  
 | |              |  
 | |              |  
 | |              |  
 | |              |  
 | |              |  
 | |              |  
 | |              |  
 | |              |  
 | .--------------.  
 |/              /   
 *--------------*    

Positions:
   0 Na     0.000000   -0.158261   15.166622    ( 0.0000,  0.0000,  0.0000)
   1 Na     2.965040    1.421888   16.642915    ( 0.0000,  0.0000,  0.0000)
   2 Na    -0.000000    2.339624   18.477256    ( 0.0000,  0.0000,  0.0000)
   3 Na     2.965040    0.024777   20.072366    ( 0.0000,  0.0000,  0.0000)
   4 Na     0.000000    1.204749   21.876039    ( 0.0000,  0.0000,  0.0000)
   5 Na     2.965040    2.425949   23.548100    ( 0.0000,  0.0000,  0.0000)
   6 Na    -0.000000   -0.004624   25.282533    ( 0.0000,  0.0000,  0.0000)
   7 Na     2.965040    1.215959   26.954797    ( 0.0000,  0.0000,  0.0000)
   8 Na    -0.000000    2.396331   28.758330    ( 0.0000,  0.0000,  0.0000)
   9 Na     2.965040    3.712716   30.353183    ( 0.0000,  0.0000,  0.0000)
  10 Na     0.000000    0.998849   32.187663    ( 0.0000,  0.0000,  0.0000)
  11 Na     2.965040    2.578806   33.663869    ( 0.0000,  0.0000,  0.0000)

Unit cell:
           periodic     x           y           z      points  spacing
  1. axis:    yes    5.930080    0.000000    0.000000    32     0.1853
  2. axis:    yes    0.000000    3.631418    0.000000    20     0.1816
  3. axis:    no     0.000000    0.000000   48.830534   252     0.1938

  Lengths:   5.930080   3.631418  48.830534
  Angles:   90.000000  90.000000  90.000000

Effective grid spacing dv^(1/3) = 0.1868

     iter     time        total  log10-change:
                         energy   eigst   dens
iter:   1 18:32:29   -16.139302   -2.35
iter:   2 18:32:30   -15.412546   -2.91  -1.46
iter:   3 18:32:31   -15.284049   -3.88  -1.87
iter:   4 18:32:32   -15.274610   -4.45  -2.33
iter:   5 18:32:33   -15.268377c  -4.71  -2.49
iter:   6 18:32:34   -15.267438c  -5.20  -2.79
iter:   7 18:32:36   -15.267499c  -5.16  -2.91
iter:   8 18:32:37   -15.267387c  -5.64  -3.15
iter:   9 18:32:38   -15.267455c  -6.00  -3.32
iter:  10 18:32:39   -15.267452c  -6.43  -3.33
iter:  11 18:32:40   -15.267383c  -6.15  -3.34
iter:  12 18:32:41   -15.267381c  -6.55  -3.82
iter:  13 18:32:42   -15.267380c  -6.99  -4.03c
iter:  14 18:32:44   -15.267380c  -7.27  -4.10c
iter:  15 18:32:45   -15.267378c  -7.47c -4.22c

Converged after 15 iterations.

Dipole moment: (-0.000000, 0.400034, -0.000054) |e|*Ang

Energy contributions relative to reference atoms: (reference = -53023.325972)

Kinetic:        +16.095821
Potential:      -14.029094
External:        +0.000000
XC:             -16.950921
Entropy (-ST):   -0.002222
Local:           -0.382073
SIC:             +0.000000
--------------------------
Free energy:    -15.268489
Extrapolated:   -15.267378

Showing only first 2 kpts
 Kpt  Band  Eigenvalues  Occupancy
  0    40     -2.81717    2.00000
  0    41     -2.07419    2.00000
  0    42     -1.30596    0.00017
  0    43     -0.84374    0.00000

  1    40     -2.46035    2.00000
  1    41     -1.72196    2.00000
  1    42     -0.96021    0.00000
  1    43     -0.50761    0.00000


Fermi level: -1.39966

No gap

Forces in eV/Ang:
  0 Na    0.00000    0.00480    0.01482
  1 Na    0.00000    0.00025   -0.00478
  2 Na    0.00000   -0.00876   -0.00388
  3 Na    0.00000    0.00794    0.00333
  4 Na    0.00000   -0.00929    0.00477
  5 Na    0.00000    0.00742    0.00067
  6 Na    0.00000   -0.00742   -0.00069
  7 Na    0.00000    0.00931   -0.00512
  8 Na    0.00000   -0.00804   -0.00330
  9 Na    0.00000    0.00882    0.00436
 10 Na    0.00000   -0.00025    0.00492
 11 Na    0.00000   -0.00480   -0.01483

System changes: positions 

Initializing position-dependent things.

Density initialized from wave functions
   .--------------.  
  /|              |  
 * |              |  
 | |              |  
 | |              |  
 | |              |  
 | |              |  
 | |              |  
 | |              |  
 | |              |  
 | |              |  
 | |              |  
 | |              |  
 | |              |  
 | |              |  
 | |              |  
 | |              |  
 | |              |  
 | |              |  
 | |      Na      |  
 | |              |  
 | |              |  
 |Na              |  
 | |              |  
 | |              |  
 |Na     Na       |  
 | |              |  
 | |              |  
 | |     Na       |  
 | Na             |  
 | |              |  
 | |              |  
 | |      Na      |  
 | |              |  
 |Na              |  
 | |              |  
 | |              |  
 | |     Na       |  
 |Na              |  
 | |              |  
 | |              |  
 | Na    Na       |  
 | |              |  
 | |              |  
 | |              |  
 | |              |  
 | |              |  
 | |              |  
 | |              |  
 | |              |  
 | |              |  
 | |              |  
 | |              |  
 | |              |  
 | |              |  
 | |              |  
 | |              |  
 | |              |  
 | |              |  
 | |              |  
 | .--------------.  
 |/              /   
 *--------------*    

Positions:
   0 Na     0.000000   -0.169009   15.173190    ( 0.0000,  0.0000,  0.0000)
   1 Na     2.965040    1.442916   16.643013    ( 0.0000,  0.0000,  0.0000)
   2 Na    -0.000000    2.323224   18.481706    ( 0.0000,  0.0000,  0.0000)
   3 Na     2.965040    0.033179   20.070381    ( 0.0000,  0.0000,  0.0000)
   4 Na     0.000000    1.199032   21.895265    ( 0.0000,  0.0000,  0.0000)
   5 Na     2.965040    2.426560   23.542167    ( 0.0000,  0.0000,  0.0000)
   6 Na    -0.000000   -0.005187   25.288351    ( 0.0000,  0.0000,  0.0000)
   7 Na     2.965040    1.221673   26.935575    ( 0.0000,  0.0000,  0.0000)
   8 Na    -0.000000    2.387939   28.760338    ( 0.0000,  0.0000,  0.0000)
   9 Na     2.965040    3.729089   30.348629    ( 0.0000,  0.0000,  0.0000)
  10 Na     0.000000    0.977773   32.187629    ( 0.0000,  0.0000,  0.0000)
  11 Na     2.965040    2.589460   33.657472    ( 0.0000,  0.0000,  0.0000)

Unit cell:
           periodic     x           y           z      points  spacing
  1. axis:    yes    5.930080    0.000000    0.000000    32     0.1853
  2. axis:    yes    0.000000    3.631418    0.000000    20     0.1816
  3. axis:    no     0.000000    0.000000   48.830534   252     0.1938

  Lengths:   5.930080   3.631418  48.830534
  Angles:   90.000000  90.000000  90.000000

Effective grid spacing dv^(1/3) = 0.1868

     iter     time        total  log10-change:
                         energy   eigst   dens
iter:   1 18:32:47   -15.320321   -3.29
iter:   2 18:32:49   -15.276503   -4.11  -2.08
iter:   3 18:32:50   -15.270340   -4.90  -2.43
iter:   4 18:32:51   -15.269878c  -5.39  -2.69
iter:   5 18:32:52   -15.267640c  -5.33  -2.72
iter:   6 18:32:53   -15.267607c  -6.10  -3.19
iter:   7 18:32:54   -15.267595c  -5.84  -3.23
iter:   8 18:32:55   -15.267597c  -6.41  -3.51
iter:   9 18:32:57   -15.267623c  -6.54  -3.55
[...]
iter:   3 18:35:35   -15.271679c  -5.92  -2.84
iter:   4 18:35:37   -15.270248c  -6.51  -2.83
iter:   5 18:35:38   -15.270200c  -6.64  -3.52
iter:   6 18:35:39   -15.270199c  -6.93  -3.78
iter:   7 18:35:40   -15.270188c  -7.44c -4.03c

Converged after 7 iterations.

Dipole moment: (-0.000000, -0.307511, 0.000050) |e|*Ang

Energy contributions relative to reference atoms: (reference = -53023.325972)

Kinetic:        +16.403053
Potential:      -14.263996
External:        +0.000000
XC:             -17.029518
Entropy (-ST):   -0.002176
Local:           -0.378639
SIC:             +0.000000
--------------------------
Free energy:    -15.271276
Extrapolated:   -15.270188

Showing only first 2 kpts
 Kpt  Band  Eigenvalues  Occupancy
  0    40     -2.82529    2.00000
  0    41     -2.07598    2.00000
  0    42     -1.30141    0.00003
  0    43     -0.86097    0.00000

  1    40     -2.46851    2.00000
  1    41     -1.72382    2.00000
  1    42     -0.95622    0.00000
  1    43     -0.52493    0.00000


Fermi level: -1.41166

No gap

Forces in eV/Ang:
  0 Na    0.00000    0.00418    0.00447
  1 Na    0.00000    0.00218    0.00374
  2 Na    0.00000    0.00208    0.00204
  3 Na    0.00000   -0.00459   -0.01281
  4 Na    0.00000   -0.00202    0.00096
  5 Na    0.00000    0.00312   -0.00140
  6 Na    0.00000   -0.00321    0.00146
  7 Na    0.00000    0.00210   -0.00020
  8 Na    0.00000    0.00469    0.01287
  9 Na    0.00000   -0.00200   -0.00277
 10 Na    0.00000   -0.00217   -0.00405
 11 Na    0.00000   -0.00420   -0.00456

System changes: positions 

Initializing position-dependent things.

Density initialized from wave functions
   .--------------.  
  /|              |  
 * |              |  
 | |              |  
 | |              |  
 | |              |  
 | |              |  
 | |              |  
 | |              |  
 | |              |  
 | |              |  
 | |              |  
 | |              |  
 | |              |  
 | |              |  
 | |              |  
 | |              |  
 | |              |  
 | |              |  
 | |      Na      |  
 | |              |  
 | |              |  
 |Na              |  
 | |              |  
 | |              |  
 |Na     Na       |  
 | |              |  
 | |              |  
 | |     Na       |  
 | Na             |  
 | |              |  
 | |              |  
 | |      Na      |  
 | |              |  
 |Na              |  
 | |              |  
 | |              |  
 | |     Na       |  
 |Na              |  
 | |              |  
 | |              |  
 | Na    Na       |  
 | |              |  
 | |              |  
 | |              |  
 | |              |  
 | |              |  
 | |              |  
 | |              |  
 | |              |  
 | |              |  
 | |              |  
 | |              |  
 | |              |  
 | |              |  
 | |              |  
 | |              |  
 | |              |  
 | |              |  
 | |              |  
 | .--------------.  
 |/              /   
 *--------------*    

Positions:
   0 Na     0.000000   -0.143806   15.219540    ( 0.0000,  0.0000,  0.0000)
   1 Na     2.965040    1.459387   16.627865    ( 0.0000,  0.0000,  0.0000)
   2 Na    -0.000000    2.261562   18.508909    ( 0.0000,  0.0000,  0.0000)
   3 Na     2.965040    0.074082   20.072794    ( 0.0000,  0.0000,  0.0000)
   4 Na     0.000000    1.153140   21.910372    ( 0.0000,  0.0000,  0.0000)
   5 Na     2.965040    2.467590   23.532544    ( 0.0000,  0.0000,  0.0000)
   6 Na    -0.000000   -0.046195   25.298453    ( 0.0000,  0.0000,  0.0000)
   7 Na     2.965040    1.267768   26.919936    ( 0.0000,  0.0000,  0.0000)
   8 Na    -0.000000    2.346600   28.757576    ( 0.0000,  0.0000,  0.0000)
   9 Na     2.965040    3.790669   30.322076    ( 0.0000,  0.0000,  0.0000)
  10 Na     0.000000    0.961355   32.202693    ( 0.0000,  0.0000,  0.0000)
  11 Na     2.965040    2.564258   33.610977    ( 0.0000,  0.0000,  0.0000)

Unit cell:
           periodic     x           y           z      points  spacing
  1. axis:    yes    5.930080    0.000000    0.000000    32     0.1853
  2. axis:    yes    0.000000    3.631418    0.000000    20     0.1816
  3. axis:    no     0.000000    0.000000   48.830534   252     0.1938

  Lengths:   5.930080   3.631418  48.830534
  Angles:   90.000000  90.000000  90.000000

Effective grid spacing dv^(1/3) = 0.1868

     iter     time        total  log10-change:
                         energy   eigst   dens
iter:   1 18:35:43   -15.271446   -4.64
iter:   2 18:35:44   -15.270680   -5.57  -2.91
iter:   3 18:35:45   -15.270729c  -6.14  -3.08
iter:   4 18:35:46   -15.270374c  -6.59  -3.07
iter:   5 18:35:47   -15.270260c  -6.55  -3.36
iter:   6 18:35:48   -15.270260c  -6.99  -3.90
iter:   7 18:35:49   -15.270252c  -7.54c -4.09c

Converged after 7 iterations.

Dipole moment: (-0.000000, -0.312412, -0.000079) |e|*Ang

Energy contributions relative to reference atoms: (reference = -53023.325972)

Kinetic:        +16.404019
Potential:      -14.262693
External:        +0.000000
XC:             -17.028962
Entropy (-ST):   -0.002181
Local:           -0.381526
SIC:             +0.000000
--------------------------
Free energy:    -15.271342
Extrapolated:   -15.270252

Showing only first 2 kpts
 Kpt  Band  Eigenvalues  Occupancy
  0    40     -2.82585    2.00000
  0    41     -2.07593    2.00000
  0    42     -1.30125    0.00003
  0    43     -0.86128    0.00000

  1    40     -2.46905    2.00000
  1    41     -1.72377    2.00000
  1    42     -0.95609    0.00000
  1    43     -0.52523    0.00000


Fermi level: -1.41195

No gap

Forces in eV/Ang:
  0 Na    0.00000    0.00539    0.00562
  1 Na    0.00000    0.00027    0.00459
  2 Na    0.00000    0.00312   -0.00140
  3 Na    0.00000   -0.00526   -0.01033
  4 Na    0.00000   -0.00179    0.00222
  5 Na    0.00000    0.00197   -0.00232
  6 Na    0.00000   -0.00207    0.00136
  7 Na    0.00000    0.00184   -0.00212
  8 Na    0.00000    0.00538    0.01068
  9 Na    0.00000   -0.00304    0.00135
 10 Na    0.00000   -0.00028   -0.00402
 11 Na    0.00000   -0.00542   -0.00513

System changes: positions 

Initializing position-dependent things.

Density initialized from wave functions
   .--------------.  
  /|              |  
 * |              |  
 | |              |  
 | |              |  
 | |              |  
 | |              |  
 | |              |  
 | |              |  
 | |              |  
 | |              |  
 | |              |  
 | |              |  
 | |              |  
 | |              |  
 | |              |  
 | |              |  
 | |              |  
 | |              |  
 | |      Na      |  
 | |              |  
 | |              |  
 |Na              |  
 | |              |  
 | |              |  
 |Na     Na       |  
 | |              |  
 | |              |  
 | |     Na       |  
 | Na             |  
 | |              |  
 | |              |  
 | |      Na      |  
 | |              |  
 |Na              |  
 | |              |  
 | |              |  
 | |     Na       |  
 |Na              |  
 | |              |  
 | |              |  
 | Na    Na       |  
 | |              |  
 | |              |  
 | |              |  
 | |              |  
 | |              |  
 | |              |  
 | |              |  
 | |              |  
 | |              |  
 | |              |  
 | |              |  
 | |              |  
 | |              |  
 | |              |  
 | |              |  
 | |              |  
 | |              |  
 | |              |  
 | .--------------.  
 |/              /   
 *--------------*    

Positions:
   0 Na     0.000000   -0.144181   15.220454    ( 0.0000,  0.0000,  0.0000)
   1 Na     2.965040    1.460534   16.627695    ( 0.0000,  0.0000,  0.0000)
   2 Na    -0.000000    2.260893   18.509879    ( 0.0000,  0.0000,  0.0000)
   3 Na     2.965040    0.074177   20.071949    ( 0.0000,  0.0000,  0.0000)
   4 Na     0.000000    1.152856   21.910401    ( 0.0000,  0.0000,  0.0000)
   5 Na     2.965040    2.467944   23.532209    ( 0.0000,  0.0000,  0.0000)
   6 Na    -0.000000   -0.046550   25.298754    ( 0.0000,  0.0000,  0.0000)
   7 Na     2.965040    1.268054   26.919915    ( 0.0000,  0.0000,  0.0000)
   8 Na    -0.000000    2.346507   28.758427    ( 0.0000,  0.0000,  0.0000)
   9 Na     2.965040    3.791340   30.321096    ( 0.0000,  0.0000,  0.0000)
  10 Na     0.000000    0.960208   32.202879    ( 0.0000,  0.0000,  0.0000)
  11 Na     2.965040    2.564628   33.610076    ( 0.0000,  0.0000,  0.0000)

Unit cell:
           periodic     x           y           z      points  spacing
  1. axis:    yes    5.930080    0.000000    0.000000    32     0.1853
  2. axis:    yes    0.000000    3.631418    0.000000    20     0.1816
  3. axis:    no     0.000000    0.000000   48.830534   252     0.1938

  Lengths:   5.930080   3.631418  48.830534
  Angles:   90.000000  90.000000  90.000000

Effective grid spacing dv^(1/3) = 0.1868

     iter     time        total  log10-change:
                         energy   eigst   dens
iter:   1 18:35:52   -15.270408   -5.70
iter:   2 18:35:53   -15.270863   -6.45  -3.33
iter:   3 18:35:54   -15.270295c  -6.99  -3.04
iter:   4 18:35:56   -15.270275c  -7.34  -3.72
iter:   5 18:35:57   -15.270281c  -7.71c -4.13c

Converged after 5 iterations.

Dipole moment: (-0.000000, -0.312276, -0.000074) |e|*Ang

Energy contributions relative to reference atoms: (reference = -53023.325972)

Kinetic:        +16.414643
Potential:      -14.270908
External:        +0.000000
XC:             -17.030657
Entropy (-ST):   -0.002178
Local:           -0.382270
SIC:             +0.000000
--------------------------
Free energy:    -15.271370
Extrapolated:   -15.270281

Showing only first 2 kpts
 Kpt  Band  Eigenvalues  Occupancy
  0    40     -2.82596    2.00000
  0    41     -2.07584    2.00000
  0    42     -1.30109    0.00003
  0    43     -0.86140    0.00000

  1    40     -2.46916    2.00000
  1    41     -1.72368    2.00000
  1    42     -0.95595    0.00000
  1    43     -0.52536    0.00000


Fermi level: -1.41207

No gap

Forces in eV/Ang:
  0 Na    0.00000    0.00544    0.00522
  1 Na    0.00000    0.00083    0.00479
  2 Na    0.00000    0.00238   -0.00061
  3 Na    0.00000   -0.00507   -0.00971
  4 Na    0.00000   -0.00176    0.00195
  5 Na    0.00000    0.00217   -0.00351
  6 Na    0.00000   -0.00227    0.00252
  7 Na    0.00000    0.00181   -0.00178
  8 Na    0.00000    0.00519    0.01013
  9 Na    0.00000   -0.00230    0.00074
 10 Na    0.00000   -0.00084   -0.00419
 11 Na    0.00000   -0.00548   -0.00471

System changes: positions 

Initializing position-dependent things.

Density initialized from wave functions
   .--------------.  
  /|              |  
 * |              |  
 | |              |  
 | |              |  
 | |              |  
 | |              |  
 | |              |  
 | |              |  
 | |              |  
 | |              |  
 | |              |  
 | |              |  
 | |              |  
 | |              |  
 | |              |  
 | |              |  
 | |              |  
 | |              |  
 | |      Na      |  
 | |              |  
 | |              |  
 |Na              |  
 | |              |  
 | |              |  
 |Na     Na       |  
 | |              |  
 | |              |  
 | |     Na       |  
 | Na             |  
 | |              |  
 | |              |  
 | |      Na      |  
 | |              |  
 |Na              |  
 | |              |  
 | |              |  
 | |     Na       |  
 |Na              |  
 | |              |  
 | |              |  
 | Na    Na       |  
 | |              |  
 | |              |  
 | |              |  
 | |              |  
 | |              |  
 | |              |  
 | |              |  
 | |              |  
 | |              |  
 | |              |  
 | |              |  
 | |              |  
 | |              |  
 | |              |  
 | |              |  
 | |              |  
 | |              |  
 | |              |  
 | .--------------.  
 |/              /   
 *--------------*    

Positions:
   0 Na     0.000000   -0.145472   15.225410    ( 0.0000,  0.0000,  0.0000)
   1 Na     2.965040    1.464718   16.626670    ( 0.0000,  0.0000,  0.0000)
   2 Na    -0.000000    2.259162   18.513332    ( 0.0000,  0.0000,  0.0000)
   3 Na     2.965040    0.073815   20.067891    ( 0.0000,  0.0000,  0.0000)
   4 Na     0.000000    1.151978   21.909233    ( 0.0000,  0.0000,  0.0000)
   5 Na     2.965040    2.469533   23.531239    ( 0.0000,  0.0000,  0.0000)
   6 Na    -0.000000   -0.048154   25.299565    ( 0.0000,  0.0000,  0.0000)
   7 Na     2.965040    1.268941   26.921129    ( 0.0000,  0.0000,  0.0000)
   8 Na    -0.000000    2.346886   28.762529    ( 0.0000,  0.0000,  0.0000)
   9 Na     2.965040    3.793088   30.317621    ( 0.0000,  0.0000,  0.0000)
  10 Na     0.000000    0.956027   32.203983    ( 0.0000,  0.0000,  0.0000)
  11 Na     2.965040    2.565906   33.605176    ( 0.0000,  0.0000,  0.0000)

Unit cell:
           periodic     x           y           z      points  spacing
  1. axis:    yes    5.930080    0.000000    0.000000    32     0.1853
  2. axis:    yes    0.000000    3.631418    0.000000    20     0.1816
  3. axis:    no     0.000000    0.000000   48.830534   252     0.1938

  Lengths:   5.930080   3.631418  48.830534
  Angles:   90.000000  90.000000  90.000000

Effective grid spacing dv^(1/3) = 0.1868

     iter     time        total  log10-change:
                         energy   eigst   dens
iter:   1 18:35:59   -15.273403   -4.31
iter:   2 18:36:00   -15.271723   -5.16  -2.68
iter:   3 18:36:02   -15.271459c  -5.76  -2.92
iter:   4 18:36:03   -15.270727c  -6.23  -2.92
iter:   5 18:36:04   -15.270399c  -6.25  -3.15
iter:   6 18:36:05   -15.270423c  -6.81  -3.88
iter:   7 18:36:06   -15.270408c  -7.16  -3.89
iter:   8 18:36:07   -15.270409c  -7.48c -4.22c

Converged after 8 iterations.

Dipole moment: (-0.000000, -0.300310, 0.000086) |e|*Ang

Energy contributions relative to reference atoms: (reference = -53023.325972)

Kinetic:        +16.459804
Potential:      -14.306519
External:        +0.000000
XC:             -17.039999
Entropy (-ST):   -0.002144
Local:           -0.382623
SIC:             +0.000000
--------------------------
Free energy:    -15.271481
Extrapolated:   -15.270409

Showing only first 2 kpts
 Kpt  Band  Eigenvalues  Occupancy
  0    40     -2.82706    2.00000
  0    41     -2.07574    2.00000
  0    42     -1.30059    0.00002
  0    43     -0.86250    0.00000

  1    40     -2.47025    2.00000
  1    41     -1.72358    2.00000
  1    42     -0.95551    0.00000
  1    43     -0.52646    0.00000


Fermi level: -1.41358

No gap

Forces in eV/Ang:
  0 Na    0.00000    0.00618    0.00347
  1 Na    0.00000    0.00055    0.00418
  2 Na    0.00000    0.00188   -0.00266
  3 Na    0.00000   -0.00469   -0.00707
  4 Na    0.00000   -0.00221    0.00340
  5 Na    0.00000    0.00180   -0.00392
  6 Na    0.00000   -0.00192    0.00459
  7 Na    0.00000    0.00229   -0.00284
  8 Na    0.00000    0.00480    0.00699
  9 Na    0.00000   -0.00180    0.00190
 10 Na    0.00000   -0.00058   -0.00468
 11 Na    0.00000   -0.00621   -0.00375

Timing:                                      incl.     excl.
-------------------------------------------------------------------
Density initialized from wave functions:     5.459     5.324   0.6% |
 Symmetrize density:                         0.134     0.134   0.0% |
Forces:                                     33.273    33.273   3.9% |-|
Hamiltonian:                                11.170     0.042   0.0% |
 Atomic:                                     0.929     0.929   0.1% |
  XC Correction:                             0.000     0.000   0.0% |
 Calculate atomic Hamiltonians:              3.999     3.999   0.5% |
 Communicate:                                0.002     0.002   0.0% |
 Initialize Hamiltonian:                     0.000     0.000   0.0% |
 Poisson:                                    0.072     0.072   0.0% |
 XC 3D grid:                                 6.124     6.124   0.7% |
LCAO initialization:                         0.766     0.008   0.0% |
 LCAO eigensolver:                           0.230     0.000   0.0% |
  Calculate projections:                     0.000     0.000   0.0% |
  DenseAtomicCorrection:                     0.001     0.001   0.0% |
  Distribute overlap matrix:                 0.000     0.000   0.0% |
  Orbital Layouts:                           0.008     0.008   0.0% |
  Potential matrix:                          0.221     0.221   0.0% |
  Sum over cells:                            0.000     0.000   0.0% |
 LCAO to grid:                               0.478     0.478   0.1% |
 Set positions (LCAO WFS):                   0.050     0.011   0.0% |
  Basic WFS set positions:                   0.000     0.000   0.0% |
  Basis functions set positions:             0.000     0.000   0.0% |
  P tci:                                     0.016     0.016   0.0% |
  ST tci:                                    0.015     0.015   0.0% |
  mktci:                                     0.008     0.008   0.0% |
PWDescriptor:                                0.377     0.377   0.0% |
Redistribute:                                0.012     0.012   0.0% |
SCF-cycle:                                 363.274     4.320   0.5% |
 Davidson:                                 198.860    59.519   7.0% |--|
  Apply H:                                  28.450    27.601   3.2% ||
   HMM T:                                    0.849     0.849   0.1% |
  Subspace diag:                            24.997     0.030   0.0% |
   calc_h_matrix:                           18.704     4.779   0.6% |
    Apply H:                                13.926    13.514   1.6% ||
     HMM T:                                  0.412     0.412   0.0% |
   diagonalize:                              0.336     0.336   0.0% |
   rotate_psi:                               5.927     5.927   0.7% |
  calc. matrices:                           61.943    33.635   4.0% |-|
   Apply H:                                 28.308    27.507   3.2% ||
    HMM T:                                   0.801     0.801   0.1% |
  diagonalize:                               2.916     2.916   0.3% |
  rotate_psi:                               21.035    21.035   2.5% ||
 Density:                                   54.441     0.005   0.0% |
  Atomic density matrices:                   1.730     1.730   0.2% |
  Mix:                                      44.295    44.295   5.2% |-|
  Multipole moments:                         0.037     0.037   0.0% |
  Pseudo density:                            8.373     7.108   0.8% |
   Symmetrize density:                       1.265     1.265   0.1% |
 Hamiltonian:                              103.563     0.399   0.0% |
  Atomic:                                    8.803     8.803   1.0% |
   XC Correction:                            0.001     0.001   0.0% |
  Calculate atomic Hamiltonians:            36.672    36.672   4.3% |-|
  Communicate:                               0.133     0.133   0.0% |
  Poisson:                                   0.669     0.669   0.1% |
  XC 3D grid:                               56.886    56.886   6.7% |--|
 Orthonormalize:                             2.090     0.004   0.0% |
  calc_s_matrix:                             0.276     0.276   0.0% |
  inverse-cholesky:                          0.030     0.030   0.0% |
  projections:                               1.202     1.202   0.1% |
  rotate_psi_s:                              0.578     0.578   0.1% |
Set symmetry:                                0.001     0.001   0.0% |
Other:                                     436.106   436.106  51.3% |--------------------|
-------------------------------------------------------------------
Total:                                               850.438 100.0%

Memory usage: 1005.77 MiB
Date: Wed Feb 26 18:43:09 2025
