
  ___ ___ ___ _ _ _  
 |   |   |_  | | | | 
 | | | | | . | | | | 
 |__ |  _|___|_____|  24.1.0
 |___|_|             

User:   husi@vera-r04-07
Date:   Wed Feb 26 18:19:35 2025
Arch:   x86_64
Pid:    1475527
CWD:    /cephyr/users/husi/Vera/A3
Python: 3.11.3
gpaw:   /apps/Arch/software/GPAW/24.1.0-foss-2023a/lib/python3.11/site-packages/gpaw
_gpaw:  /apps/Arch/software/GPAW/24.1.0-foss-2023a/lib/python3.11/site-packages/
        _gpaw.cpython-311-x86_64-linux-gnu.so
ase:    /apps/Arch/software/ASE/3.22.1-gfbf-2023a/lib/python3.11/site-packages/ase (version 3.22.1)
numpy:  /apps/Arch/software/SciPy-bundle/2023.07-gfbf-2023a/lib/python3.11/site-packages/numpy (version 1.25.1)
scipy:  /apps/Arch/software/SciPy-bundle/2023.07-gfbf-2023a/lib/python3.11/site-packages/scipy (version 1.11.1)
libxc:  6.2.2
units:  Angstrom and eV
cores: 32
OpenMP: False
OMP_NUM_THREADS: 1

Input parameters:
  kpts: [8 8 1]
  mode: {ecut: 500.0,
         name: pw}
  occupations: {fixmagmom: False,
                name: fermi-dirac,
                width: 0.01}
  xc: PBE

System changes: positions, numbers, cell, pbc, initial_charges, initial_magmoms 

Initialize ...

species:
  Na:
    name: Sodium
    id: d7ecbc49209718622bcbe287195dca2a
    Z: 11.0
    valence: 7
    core: 4
    charge: 0.0
    file: /apps/Common/software/GPAW-setups/24.1.0/Na.PBE.gz
    compensation charges: {type: gauss,
                           rc: 0.37,
                           lmax: 2}
    cutoffs: {filter: 2.17,
              core: 2.59}
    valence states:
      #              energy  rcut
      - 3s(1.00)    -2.744   1.201
      - 2p(6.00)   -28.672   1.217
      - 3p(0.00)    -0.743   1.217
      -  s          24.468   1.201
      -  d           0.000   1.238
  
    # Using partial waves for Na as LCAO basis

Reference energy: -44186.104977  # eV

Spin-paired calculation

Convergence criteria:
 Maximum [total energy] change in last 3 cyles: 0.0005 eV / valence electron
 Maximum integral of absolute [dens]ity change: 0.0001 electrons / valence electron
 Maximum integral of absolute [eigenst]ate change: 4e-08 eV^2 / valence electron
 Maximum number of scf [iter]ations: 333
 (Square brackets indicate name in SCF output, whereas a 'c' in
 the SCF output indicates the quantity has converged.)

Symmetries present (total): 12

  ( 1  0  0)  ( 1  0  0)  ( 1 -1  0)  ( 1 -1  0)  ( 0  1  0)  ( 0  1  0)
  ( 1 -1  0)  ( 0  1  0)  ( 1  0  0)  ( 0 -1  0)  ( 1  0  0)  (-1  1  0)
  ( 0  0 -1)  ( 0  0  1)  ( 0  0 -1)  ( 0  0  1)  ( 0  0  1)  ( 0  0 -1)

  ( 0 -1  0)  ( 0 -1  0)  (-1  1  0)  (-1  1  0)  (-1  0  0)  (-1  0  0)
  ( 1 -1  0)  (-1  0  0)  ( 0  1  0)  (-1  0  0)  ( 0 -1  0)  (-1  1  0)
  ( 0  0  1)  ( 0  0 -1)  ( 0  0 -1)  ( 0  0  1)  ( 0  0 -1)  ( 0  0  1)
Note: your k-points are not as symmetric as your crystal!

64 k-points: 8 x 8 x 1 Monkhorst-Pack grid
20 k-points in the irreducible part of the Brillouin zone
       k-points in crystal coordinates                weights
   0:     0.06250000   -0.06250000    0.00000000          2/64
   1:     0.06250000    0.06250000    0.00000000          2/64
   2:     0.18750000   -0.18750000    0.00000000          2/64
   3:     0.18750000   -0.06250000    0.00000000          4/64
   4:     0.18750000    0.06250000    0.00000000          4/64
   5:     0.18750000    0.18750000    0.00000000          2/64
   6:     0.31250000   -0.31250000    0.00000000          2/64
   7:     0.31250000   -0.18750000    0.00000000          4/64
   8:     0.31250000   -0.06250000    0.00000000          4/64
   9:     0.31250000    0.06250000    0.00000000          4/64
          ...
  19:     0.43750000    0.43750000    0.00000000          2/64

Wave functions: Plane wave expansion
  Cutoff energy: 500.000 eV
  Number of coefficients (min, max): 31573, 31681
  Pulay-stress correction: 0.000000 eV/Ang^3 (de/decut=0.000000)
  Using FFTW library
  ScaLapack parameters: grid=1x1, blocksize=None
  Wavefunction extrapolation:
    Improved wavefunction reuse through dual PAW basis 

Occupation numbers: Fermi-Dirac:
  width: 0.0100  # eV
 

Eigensolver
   Davidson(niter=2) 

Densities:
  Coarse grid: 32*32*216 grid
  Fine grid: 64*64*432 grid
  Total Charge: 0.000000 

Density mixing:
  Method: separate
  Backend: pulay
  Linear mixing parameter: 0.05
  old densities: 5
  Damping of long wavelength oscillations: 50 

Hamiltonian:
  XC and Coulomb potentials evaluated on a 64*64*432 grid
  Using the PBE Exchange-Correlation functional
  External potential:
    NoExternalPotential
 

XC parameters: PBE with 2 nearest neighbor stencil

Memory estimate:
  Process memory now: 688.57 MiB
  Calculator: 168.59 MiB
    Density: 94.18 MiB
      Arrays: 43.88 MiB
      Localized functions: 33.43 MiB
      Mixer: 16.88 MiB
    Hamiltonian: 29.37 MiB
      Arrays: 28.69 MiB
      XC: 0.00 MiB
      Poisson: 0.00 MiB
      vbar: 0.68 MiB
    Wavefunctions: 45.04 MiB
      Arrays psit_nG: 14.50 MiB
      Eigensolver: 2.74 MiB
      Projections: 0.06 MiB
      Projectors: 16.88 MiB
      PW-descriptor: 10.85 MiB

Total number of cores used: 32
Parallelization over k-points: 4
Parallelization over states: 8

Number of atoms: 10
Number of atomic orbitals: 70
Number of bands in calculation: 46
Number of valence electrons: 70
Bands to converge: occupied

... initialized

Initializing position-dependent things.

Density initialized from atomic densities
Creating initial wave functions:
  46 bands from LCAO basis set

                                  
                                  
                                  
                                  
                  Na              
                                  
                                  
               Na                 
                        Na        
                                  
                                  
                     Na           
               Na       Na        
                                  
                                  
                                  
               Na    Na           
                        Na        
                                  
                                  
       Na                         
                                  
                                  
                                  
                                  

Positions:
   0 Na     0.000000    0.000000   15.000000    ( 0.0000,  0.0000,  0.0000)
   1 Na     5.930080    3.423733   16.210473    ( 0.0000,  0.0000,  0.0000)
   2 Na     2.965040    1.711867   17.420945    ( 0.0000,  0.0000,  0.0000)
   3 Na     5.930080    0.000000   18.631418    ( 0.0000,  0.0000,  0.0000)
   4 Na     5.930080    3.423733   19.841890    ( 0.0000,  0.0000,  0.0000)
   5 Na     2.965040    1.711867   21.052363    ( 0.0000,  0.0000,  0.0000)
   6 Na     5.930080    0.000000   22.262835    ( 0.0000,  0.0000,  0.0000)
   7 Na     5.930080    3.423733   23.473308    ( 0.0000,  0.0000,  0.0000)
   8 Na     2.965040    1.711867   24.683781    ( 0.0000,  0.0000,  0.0000)
   9 Na     2.965040    5.135600   25.894253    ( 0.0000,  0.0000,  0.0000)

Unit cell:
           periodic     x           y           z      points  spacing
  1. axis:    yes    5.930080    0.000000    0.000000    32     0.1605
  2. axis:    yes    2.965040    5.135600    0.000000    32     0.1605
  3. axis:    no     0.000000    0.000000   40.894253   216     0.1893

  Lengths:   5.930080   5.930080  40.894253
  Angles:   90.000000  90.000000  60.000000

Effective grid spacing dv^(1/3) = 0.1779

     iter     time        total  log10-change:
                         energy   eigst   dens
iter:   1 18:19:42   -12.429567
iter:   2 18:19:44   -12.357693   -1.31  -1.52
iter:   3 18:19:47   -12.309474   -1.90  -1.59
iter:   4 18:19:49   -12.281028   -2.30  -1.71
iter:   5 18:19:51   -12.293752c  -2.43  -1.82
iter:   6 18:19:53   -12.315879c  -2.71  -2.03
iter:   7 18:19:56   -12.271422   -2.95  -1.93
iter:   8 18:19:58   -12.270425   -3.57  -2.98
iter:   9 18:20:00   -12.268115c  -3.68  -3.01
iter:  10 18:20:02   -12.268105c  -4.39  -3.58
iter:  11 18:20:04   -12.268130c  -4.74  -3.62
iter:  12 18:20:07   -12.268156c  -5.08  -3.63
iter:  13 18:20:09   -12.268150c  -5.37  -3.75
iter:  14 18:20:11   -12.268151c  -5.66  -3.92
iter:  15 18:20:13   -12.268146c  -6.15  -4.34c
iter:  16 18:20:16   -12.268146c  -6.51  -4.50c
iter:  17 18:20:18   -12.268146c  -6.82  -4.53c
iter:  18 18:20:20   -12.268147c  -7.07  -4.60c
iter:  19 18:20:22   -12.268147c  -7.41c -4.78c

Converged after 19 iterations.

Dipole moment: (0.000000, 0.000000, -0.000000) |e|*Ang

Energy contributions relative to reference atoms: (reference = -44186.104977)

Kinetic:        +11.084721
Potential:       -9.958884
External:        +0.000000
XC:             -13.076375
Entropy (-ST):   -0.001659
Local:           -0.316779
SIC:             +0.000000
--------------------------
Free energy:    -12.268976
Extrapolated:   -12.268147

Showing only first 2 kpts
 Kpt  Band  Eigenvalues  Occupancy
  0    33     -2.26211    2.00000
  0    34     -1.18434    0.00000
  0    35     -0.25282    0.00000
  0    36     -0.24349    0.00000

  1    33     -2.30576    2.00000
  1    34     -1.22677    0.00000
  1    35     -0.21332    0.00000
  1    36      0.02924    0.00000


Fermi level: -1.76632

No gap

Forces in eV/Ang:
  0 Na   -0.00000    0.00000    0.04721
  1 Na    0.00000   -0.00000    0.04842
  2 Na    0.00000    0.00000   -0.07446
  3 Na   -0.00000    0.00000   -0.02536
  4 Na    0.00000    0.00000    0.00301
  5 Na    0.00000   -0.00000   -0.00301
  6 Na    0.00000   -0.00000    0.02536
  7 Na    0.00000   -0.00000    0.07446
  8 Na    0.00000    0.00000   -0.04842
  9 Na   -0.00000   -0.00000   -0.04721

System changes: positions 

Initializing position-dependent things.

Density initialized from wave functions
                                  
                                  
                                  
                                  
                  Na              
                                  
                                  
               Na                 
                        Na        
                                  
                                  
                     Na           
               Na       Na        
                                  
                                  
                                  
               Na    Na           
                        Na        
                                  
                                  
       Na                         
                                  
                                  
                                  
                                  

Positions:
   0 Na    -0.000000    0.000000   15.000674    ( 0.0000,  0.0000,  0.0000)
   1 Na     5.930080    3.423733   16.211164    ( 0.0000,  0.0000,  0.0000)
   2 Na     2.965040    1.711867   17.419881    ( 0.0000,  0.0000,  0.0000)
   3 Na     5.930080    0.000000   18.631055    ( 0.0000,  0.0000,  0.0000)
   4 Na     5.930080    3.423733   19.841933    ( 0.0000,  0.0000,  0.0000)
   5 Na     2.965040    1.711867   21.052320    ( 0.0000,  0.0000,  0.0000)
   6 Na     5.930080    0.000000   22.263198    ( 0.0000,  0.0000,  0.0000)
   7 Na     5.930080    3.423733   23.474372    ( 0.0000,  0.0000,  0.0000)
   8 Na     2.965040    1.711867   24.683089    ( 0.0000,  0.0000,  0.0000)
   9 Na     2.965040    5.135600   25.893579    ( 0.0000,  0.0000,  0.0000)

Unit cell:
           periodic     x           y           z      points  spacing
  1. axis:    yes    5.930080    0.000000    0.000000    32     0.1605
  2. axis:    yes    2.965040    5.135600    0.000000    32     0.1605
  3. axis:    no     0.000000    0.000000   40.894253   216     0.1893

  Lengths:   5.930080   5.930080  40.894253
  Angles:   90.000000  90.000000  60.000000

Effective grid spacing dv^(1/3) = 0.1779

     iter     time        total  log10-change:
                         energy   eigst   dens
iter:   1 18:20:27   -12.268491   -5.73
iter:   2 18:20:29   -12.268459   -6.56  -3.51
iter:   3 18:20:31   -12.268455c  -6.95  -3.80
iter:   4 18:20:33   -12.268453c  -7.33  -4.18c
iter:   5 18:20:36   -12.268453c  -7.85c -4.69c

Converged after 5 iterations.

Dipole moment: (0.000000, -0.000000, 0.000000) |e|*Ang

Energy contributions relative to reference atoms: (reference = -44186.104977)

Kinetic:        +11.055185
Potential:       -9.931554
External:        +0.000000
XC:             -13.072717
Entropy (-ST):   -0.001661
Local:           -0.318535
SIC:             +0.000000
--------------------------
Free energy:    -12.269283
Extrapolated:   -12.268453

Showing only first 2 kpts
 Kpt  Band  Eigenvalues  Occupancy
  0    33     -2.26223    2.00000
  0    34     -1.18433    0.00000
  0    35     -0.25333    0.00000
  0    36     -0.24388    0.00000

  1    33     -2.30588    2.00000
  1    34     -1.22676    0.00000
  1    35     -0.21322    0.00000
  1    36      0.02874    0.00000


Fermi level: -1.76668

No gap

Forces in eV/Ang:
  0 Na   -0.00000   -0.00000    0.04748
  1 Na    0.00000    0.00000    0.04782
  2 Na    0.00000    0.00000   -0.07329
  3 Na   -0.00000    0.00000   -0.02471
  4 Na   -0.00000    0.00000    0.00349
  5 Na   -0.00000   -0.00000   -0.00349
  6 Na   -0.00000   -0.00000    0.02471
  7 Na   -0.00000   -0.00000    0.07329
  8 Na    0.00000   -0.00000   -0.04782
  9 Na    0.00000   -0.00000   -0.04748

System changes: positions 

Initializing position-dependent things.

Density initialized from wave functions
                                  
                                  
                                  
                                  
                  Na              
                                  
                                  
               Na                 
                        Na        
                                  
                                  
                     Na           
               Na       Na        
                                  
                                  
                                  
               Na    Na           
                        Na        
                                  
                                  
       Na                         
                                  
                                  
                                  
                                  

Positions:
   0 Na    -0.000000    0.000000   15.062780    ( 0.0000,  0.0000,  0.0000)
   1 Na     5.930080    3.423733   16.273731    ( 0.0000,  0.0000,  0.0000)
   2 Na     2.965040    1.711867   17.323985    ( 0.0000,  0.0000,  0.0000)
   3 Na     5.930080    0.000000   18.598715    ( 0.0000,  0.0000,  0.0000)
   4 Na     5.930080    3.423733   19.846495    ( 0.0000,  0.0000,  0.0000)
   5 Na     2.965040    1.711867   21.047758    ( 0.0000,  0.0000,  0.0000)
   6 Na     5.930080    0.000000   22.295538    ( 0.0000,  0.0000,  0.0000)
   7 Na     5.930080    3.423733   23.570268    ( 0.0000,  0.0000,  0.0000)
   8 Na     2.965040    1.711867   24.620522    ( 0.0000,  0.0000,  0.0000)
   9 Na     2.965040    5.135600   25.831473    ( 0.0000,  0.0000,  0.0000)

Unit cell:
           periodic     x           y           z      points  spacing
  1. axis:    yes    5.930080    0.000000    0.000000    32     0.1605
  2. axis:    yes    2.965040    5.135600    0.000000    32     0.1605
  3. axis:    no     0.000000    0.000000   40.894253   216     0.1893

  Lengths:   5.930080   5.930080  40.894253
  Angles:   90.000000  90.000000  60.000000

Effective grid spacing dv^(1/3) = 0.1779

     iter     time        total  log10-change:
                         energy   eigst   dens
iter:   1 18:20:40   -12.583663   -1.94
iter:   2 18:20:42   -12.373446   -2.97  -1.63
iter:   3 18:20:45   -12.300407   -3.42  -1.90
iter:   4 18:20:47   -12.286011   -3.49  -2.21
iter:   5 18:20:49   -12.285713c  -4.28  -2.75
iter:   6 18:20:51   -12.285695c  -4.64  -2.83
iter:   7 18:20:54   -12.285745c  -4.85  -3.13
iter:   8 18:20:56   -12.285750c  -5.30  -3.69
iter:   9 18:20:58   -12.285752c  -5.63  -3.71
iter:  10 18:21:00   -12.285752c  -5.93  -3.95
iter:  11 18:21:03   -12.285753c  -6.27  -4.32c
iter:  12 18:21:05   -12.285753c  -6.61  -4.44c
iter:  13 18:21:07   -12.285753c  -6.92  -4.45c
iter:  14 18:21:09   -12.285754c  -7.22  -4.46c
iter:  15 18:21:12   -12.285754c  -7.48c -4.52c

Converged after 15 iterations.

Dipole moment: (0.000000, -0.000000, 0.000000) |e|*Ang

Energy contributions relative to reference atoms: (reference = -44186.104977)

Kinetic:        +11.503102
Potential:      -10.251450
External:        +0.000000
XC:             -13.219513
Entropy (-ST):   -0.001884
Local:           -0.316952
SIC:             +0.000000
--------------------------
Free energy:    -12.286696
Extrapolated:   -12.285754

Showing only first 2 kpts
 Kpt  Band  Eigenvalues  Occupancy
  0    33     -2.23869    2.00000
  0    34     -1.15215    0.00000
  0    35     -0.25945    0.00000
  0    36     -0.24089    0.00000

  1    33     -2.28230    2.00000
  1    34     -1.19464    0.00000
  1    35     -0.17741    0.00000
  1    36      0.02409    0.00000


Fermi level: -1.76422

No gap

Forces in eV/Ang:
  0 Na   -0.00000    0.00000    0.00722
  1 Na    0.00000   -0.00000    0.01845
  2 Na    0.00000    0.00000   -0.02670
  3 Na    0.00000    0.00000    0.02130
  4 Na   -0.00000    0.00000    0.03512
  5 Na    0.00000   -0.00000   -0.03512
  6 Na   -0.00000   -0.00000   -0.02130
  7 Na    0.00000    0.00000    0.02670
  8 Na   -0.00000    0.00000   -0.01845
  9 Na    0.00000    0.00000   -0.00722

System changes: positions 

Initializing position-dependent things.

Density initialized from wave functions
                                  
                                  
                                  
                                  
                  Na              
                                  
                                  
               Na                 
                        Na        
                                  
                                  
                     Na           
               Na       Na        
                                  
                                  
                                  
               Na    Na           
                        Na        
                                  
                                  
       Na                         
                                  
                                  
                                  
                                  

Positions:
   0 Na    -0.000000    0.000000   15.085164    ( 0.0000,  0.0000,  0.0000)
   1 Na     5.930080    3.423733   16.296501    ( 0.0000,  0.0000,  0.0000)
   2 Na     2.965040    1.711867   17.289116    ( 0.0000,  0.0000,  0.0000)
   3 Na     5.930080    0.000000   18.587543    ( 0.0000,  0.0000,  0.0000)
   4 Na     5.930080    3.423733   19.848809    ( 0.0000,  0.0000,  0.0000)
   5 Na     2.965040    1.711867   21.045444    ( 0.0000,  0.0000,  0.0000)
   6 Na     5.930080    0.000000   22.306710    ( 0.0000,  0.0000,  0.0000)
   7 Na     5.930080    3.423733   23.605137    ( 0.0000,  0.0000,  0.0000)
   8 Na     2.965040    1.711867   24.597752    ( 0.0000,  0.0000,  0.0000)
   9 Na     2.965040    5.135600   25.809089    ( 0.0000,  0.0000,  0.0000)

Unit cell:
           periodic     x           y           z      points  spacing
  1. axis:    yes    5.930080    0.000000    0.000000    32     0.1605
  2. axis:    yes    2.965040    5.135600    0.000000    32     0.1605
  3. axis:    no     0.000000    0.000000   40.894253   216     0.1893

  Lengths:   5.930080   5.930080  40.894253
  Angles:   90.000000  90.000000  60.000000

Effective grid spacing dv^(1/3) = 0.1779

     iter     time        total  log10-change:
                         energy   eigst   dens
iter:   1 18:21:16   -12.322953   -2.89
iter:   2 18:21:18   -12.296507   -3.89  -2.09
iter:   3 18:21:21   -12.288706c  -4.33  -2.38
iter:   4 18:21:23   -12.287172c  -4.71  -2.67
iter:   5 18:21:25   -12.286874c  -4.97  -3.01
iter:   6 18:21:27   -12.286961c  -5.47  -3.32
iter:   7 18:21:30   -12.286911c  -5.66  -3.43
iter:   8 18:21:32   -12.286912c  -6.14  -4.15c
iter:   9 18:21:34   -12.286912c  -6.52  -4.16c
iter:  10 18:21:36   -12.286912c  -6.86  -4.15c
iter:  11 18:21:39   -12.286910c  -7.01  -4.24c
iter:  12 18:21:41   -12.286911c  -7.42c -4.28c

Converged after 12 iterations.

Dipole moment: (0.000000, 0.000000, 0.000000) |e|*Ang

Energy contributions relative to reference atoms: (reference = -44186.104977)

Kinetic:        +11.755602
Potential:      -10.440771
External:        +0.000000
XC:             -13.282088
Entropy (-ST):   -0.002088
Local:           -0.318610
SIC:             +0.000000
--------------------------
Free energy:    -12.287955
Extrapolated:   -12.286911

Showing only first 2 kpts
 Kpt  Band  Eigenvalues  Occupancy
  0    33     -2.23161    2.00000
  0    34     -1.14152    0.00000
  0    35     -0.26408    0.00000
  0    36     -0.24295    0.00000

  1    33     -2.27520    2.00000
  1    34     -1.18402    0.00000
  1    35     -0.16484    0.00000
  1    36      0.01999    0.00000


Fermi level: -1.76663

No gap

Forces in eV/Ang:
  0 Na    0.00000    0.00000   -0.01004
  1 Na    0.00000   -0.00000    0.00632
  2 Na    0.00000    0.00000   -0.00913
  3 Na    0.00000    0.00000    0.04045
  4 Na    0.00000    0.00000    0.04662
  5 Na   -0.00000    0.00000   -0.04662
  6 Na    0.00000   -0.00000   -0.04045
  7 Na    0.00000    0.00000    0.00913
  8 Na   -0.00000    0.00000   -0.00632
  9 Na    0.00000    0.00000    0.01004

System changes: positions 

Initializing position-dependent things.

Density initialized from wave functions
                                  
                                  
                                  
                                  
                  Na              
                                  
                                  
               Na                 
                        Na        
                                  
                                  
                     Na           
               Na       Na        
                                  
                                  
                                  
               Na    Na           
                        Na        
                                  
                                  
       Na                         
                                  
                                  
                                  
                                  

Positions:
   0 Na    -0.000000    0.000000   15.083661    ( 0.0000,  0.0000,  0.0000)
   1 Na     5.930080    3.423733   16.295210    ( 0.0000,  0.0000,  0.0000)
   2 Na     2.965040    1.711867   17.291102    ( 0.0000,  0.0000,  0.0000)
   3 Na     5.930080    0.000000   18.588795    ( 0.0000,  0.0000,  0.0000)
   4 Na     5.930080    3.423733   19.849332    ( 0.0000,  0.0000,  0.0000)
   5 Na     2.965040    1.711867   21.044921    ( 0.0000,  0.0000,  0.0000)
   6 Na     5.930080    0.000000   22.305458    ( 0.0000,  0.0000,  0.0000)
   7 Na     5.930080    3.423733   23.603151    ( 0.0000,  0.0000,  0.0000)
   8 Na     2.965040    1.711867   24.599043    ( 0.0000,  0.0000,  0.0000)
   9 Na     2.965040    5.135600   25.810592    ( 0.0000,  0.0000,  0.0000)

Unit cell:
           periodic     x           y           z      points  spacing
  1. axis:    yes    5.930080    0.000000    0.000000    32     0.1605
  2. axis:    yes    2.965040    5.135600    0.000000    32     0.1605
  3. axis:    no     0.000000    0.000000   40.894253   216     0.1893

  Lengths:   5.930080   5.930080  40.894253
  Angles:   90.000000  90.000000  60.000000

Effective grid spacing dv^(1/3) = 0.1779

     iter     time        total  log10-change:
                         energy   eigst   dens
iter:   1 18:21:45   -12.287364   -5.02
iter:   2 18:21:47   -12.287116   -5.87  -3.13
iter:   3 18:21:50   -12.287031c  -6.25  -3.42
iter:   4 18:21:52   -12.287033c  -6.69  -3.86
iter:   5 18:21:54   -12.287033c  -7.20  -4.34c
iter:   6 18:21:56   -12.287032c  -7.63c -4.46c

Converged after 6 iterations.

Dipole moment: (0.000000, 0.000000, 0.000000) |e|*Ang

Energy contributions relative to reference atoms: (reference = -44186.104977)

Kinetic:        +11.726756
Potential:      -10.418998
External:        +0.000000
XC:             -13.277394
Entropy (-ST):   -0.002069
Local:           -0.316361
SIC:             +0.000000
--------------------------
Free energy:    -12.288067
Extrapolated:   -12.287032

Showing only first 2 kpts
 Kpt  Band  Eigenvalues  Occupancy
  0    33     -2.23207    2.00000
  0    34     -1.14235    0.00000
  0    35     -0.26360    0.00000
  0    36     -0.24261    0.00000

  1    33     -2.27567    2.00000
  1    34     -1.18485    0.00000
  1    35     -0.16583    0.00000
  1    36      0.02045    0.00000


Fermi level: -1.76643

No gap

Forces in eV/Ang:
  0 Na   -0.00000    0.00000   -0.00801
  1 Na   -0.00000   -0.00000    0.00843
  2 Na    0.00000    0.00000   -0.01084
  3 Na    0.00000    0.00000    0.03877
  4 Na    0.00000    0.00000    0.04554
  5 Na   -0.00000   -0.00000   -0.04554
  6 Na    0.00000    0.00000   -0.03877
  7 Na   -0.00000   -0.00000    0.01084
  8 Na   -0.00000    0.00000   -0.00843
  9 Na   -0.00000    0.00000    0.00801

System changes: positions 

Initializing position-dependent things.

Density initialized from wave functions
                                  
                                  
                                  
                                  
                  Na              
                                  
                                  
               Na                 
                        Na        
                                  
                                  
                     Na           
               Na       Na        
                                  
                                  
                                  
               Na    Na           
                        Na        
                                  
                                  
       Na                         
                                  
                                  
                                  
                                  

Positions:
   0 Na    -0.000000    0.000000   15.077610    ( 0.0000,  0.0000,  0.0000)
   1 Na     5.930080    3.423733   16.292275    ( 0.0000,  0.0000,  0.0000)
   2 Na     2.965040    1.711867   17.295819    ( 0.0000,  0.0000,  0.0000)
   3 Na     5.930080    0.000000   18.598557    ( 0.0000,  0.0000,  0.0000)
   4 Na     5.930080    3.423733   19.857777    ( 0.0000,  0.0000,  0.0000)
   5 Na     2.965040    1.711867   21.036477    ( 0.0000,  0.0000,  0.0000)
   6 Na     5.930080    0.000000   22.295697    ( 0.0000,  0.0000,  0.0000)
   7 Na     5.930080    3.423733   23.598434    ( 0.0000,  0.0000,  0.0000)
   8 Na     2.965040    1.711867   24.601979    ( 0.0000,  0.0000,  0.0000)
   9 Na     2.965040    5.135600   25.816643    ( 0.0000,  0.0000,  0.0000)

Unit cell:
           periodic     x           y           z      points  spacing
  1. axis:    yes    5.930080    0.000000    0.000000    32     0.1605
  2. axis:    yes    2.965040    5.135600    0.000000    32     0.1605
  3. axis:    no     0.000000    0.000000   40.894253   216     0.1893

  Lengths:   5.930080   5.930080  40.894253
  Angles:   90.000000  90.000000  60.000000

Effective grid spacing dv^(1/3) = 0.1779

     iter     time        total  log10-change:
                         energy   eigst   dens
iter:   1 18:22:01   -12.298552   -3.52
iter:   2 18:22:03   -12.291220   -4.59  -2.37
iter:   3 18:22:05   -12.288575c  -4.91  -2.64
iter:   4 18:22:08   -12.288454c  -5.31  -3.04
iter:   5 18:22:10   -12.288301c  -5.78  -3.27
iter:   6 18:22:12   -12.288296c  -6.27  -3.74
iter:   7 18:22:15   -12.288289c  -6.53  -3.94
iter:   8 18:22:17   -12.288289c  -6.97  -4.66c
iter:   9 18:22:19   -12.288289c  -7.28  -4.68c
iter:  10 18:22:21   -12.288289c  -7.66c -5.13c

Converged after 10 iterations.

Dipole moment: (0.000000, -0.000000, 0.000000) |e|*Ang

Energy contributions relative to reference atoms: (reference = -44186.104977)

Kinetic:        +11.672715
Potential:      -10.380634
External:        +0.000000
XC:             -13.261708
Entropy (-ST):   -0.002009
Local:           -0.317657
SIC:             +0.000000
--------------------------
Free energy:    -12.289293
Extrapolated:   -12.288289

Showing only first 2 kpts
 Kpt  Band  Eigenvalues  Occupancy
  0    33     -2.23285    2.00000
  0    34     -1.14417    0.00000
  0    35     -0.26288    0.00000
  0    36     -0.24240    0.00000

  1    33     -2.27645    2.00000
  1    34     -1.18667    0.00000
  1    35     -0.16857    0.00000
  1    36      0.02111    0.00000


Fermi level: -1.76631

No gap

Forces in eV/Ang:
  0 Na    0.00000    0.00000   -0.00132
  1 Na    0.00000   -0.00000    0.01247
  2 Na    0.00000    0.00000   -0.01345
  3 Na   -0.00000    0.00000    0.02778
  4 Na   -0.00000    0.00000    0.03822
  5 Na   -0.00000   -0.00000   -0.03822
  6 Na   -0.00000   -0.00000   -0.02778
  7 Na    0.00000   -0.00000    0.01345
  8 Na    0.00000    0.00000   -0.01247
  9 Na    0.00000   -0.00000    0.00132

System changes: positions 

Initializing position-dependent things.

Density initialized from wave functions
                                  
                                  
                                  
                                  
                  Na              
                                  
                                  
               Na                 
                        Na        
                                  
                                  
                     Na           
               Na       Na        
                                  
                                  
                                  
               Na    Na           
                        Na        
                                  
                                  
       Na                         
                                  
                                  
                                  
                                  

Positions:
   0 Na    -0.000000    0.000000   15.068930    ( 0.0000,  0.0000,  0.0000)
   1 Na     5.930080    3.423733   16.292705    ( 0.0000,  0.0000,  0.0000)
   2 Na     2.965040    1.711867   17.295859    ( 0.0000,  0.0000,  0.0000)
   3 Na     5.930080    0.000000   18.622236    ( 0.0000,  0.0000,  0.0000)
   4 Na     5.930080    3.423733   19.883035    ( 0.0000,  0.0000,  0.0000)
   5 Na     2.965040    1.711867   21.011218    ( 0.0000,  0.0000,  0.0000)
   6 Na     5.930080    0.000000   22.272017    ( 0.0000,  0.0000,  0.0000)
   7 Na     5.930080    3.423733   23.598394    ( 0.0000,  0.0000,  0.0000)
   8 Na     2.965040    1.711867   24.601548    ( 0.0000,  0.0000,  0.0000)
   9 Na     2.965040    5.135600   25.825323    ( 0.0000,  0.0000,  0.0000)

Unit cell:
           periodic     x           y           z      points  spacing
  1. axis:    yes    5.930080    0.000000    0.000000    32     0.1605
  2. axis:    yes    2.965040    5.135600    0.000000    32     0.1605
  3. axis:    no     0.000000    0.000000   40.894253   216     0.1893

  Lengths:   5.930080   5.930080  40.894253
  Angles:   90.000000  90.000000  60.000000

Effective grid spacing dv^(1/3) = 0.1779

     iter     time        total  log10-change:
                         energy   eigst   dens
iter:   1 18:22:26   -12.339522   -2.99
iter:   2 18:22:28   -12.303867   -4.11  -2.02
iter:   3 18:22:30   -12.291724   -4.34  -2.31
iter:   4 18:22:32   -12.290457c  -4.66  -2.73
iter:   5 18:22:35   -12.290405c  -5.23  -3.22
iter:   6 18:22:37   -12.290409c  -5.72  -3.46
iter:   7 18:22:39   -12.290399c  -5.90  -3.49
iter:   8 18:22:41   -12.290396c  -6.35  -4.27c
iter:   9 18:22:44   -12.290396c  -6.71  -4.36c
iter:  10 18:22:46   -12.290395c  -6.97  -4.42c
iter:  11 18:22:48   -12.290395c  -7.32  -5.14c
iter:  12 18:22:50   -12.290395c  -7.64c -5.14c

Converged after 12 iterations.

Dipole moment: (0.000000, -0.000000, 0.000000) |e|*Ang

Energy contributions relative to reference atoms: (reference = -44186.104977)

Kinetic:        +11.600433
Potential:      -10.330615
External:        +0.000000
XC:             -13.241610
Entropy (-ST):   -0.001955
Local:           -0.317626
SIC:             +0.000000
--------------------------
Free energy:    -12.291373
Extrapolated:   -12.290395

Showing only first 2 kpts
 Kpt  Band  Eigenvalues  Occupancy
  0    33     -2.23240    2.00000
  0    34     -1.14535    0.00000
  0    35     -0.26259    0.00000
  0    36     -0.24257    0.00000

  1    33     -2.27599    2.00000
  1    34     -1.18784    0.00000
  1    35     -0.17166    0.00000
  1    36      0.02146    0.00000


Fermi level: -1.76736

No gap

Forces in eV/Ang:
  0 Na   -0.00000    0.00000    0.01079
  1 Na   -0.00000   -0.00000    0.02033
  2 Na    0.00000    0.00000   -0.01681
  3 Na    0.00000   -0.00000    0.00120
  4 Na    0.00000    0.00000    0.02073
  5 Na    0.00000   -0.00000   -0.02073
  6 Na   -0.00000   -0.00000   -0.00120
  7 Na    0.00000   -0.00000    0.01681
  8 Na    0.00000    0.00000   -0.02033
  9 Na   -0.00000   -0.00000   -0.01079

System changes: positions 

Initializing position-dependent things.

Density initialized from wave functions
                                  
                                  
                                  
                                  
                  Na              
                                  
                                  
                                  
               Na       Na        
                                  
                                  
                     Na           
               Na       Na        
                                  
                                  
                                  
               Na    Na Na        
                                  
                                  
                                  
       Na                         
                                  
                                  
                                  
                                  

Positions:
   0 Na    -0.000000    0.000000   15.071609    ( 0.0000,  0.0000,  0.0000)
   1 Na     5.930080    3.423733   16.301622    ( 0.0000,  0.0000,  0.0000)
   2 Na     2.965040    1.711867   17.282766    ( 0.0000,  0.0000,  0.0000)
   3 Na     5.930080    0.000000   18.633647    ( 0.0000,  0.0000,  0.0000)
   4 Na     5.930080    3.423733   19.900758    ( 0.0000,  0.0000,  0.0000)
   5 Na     2.965040    1.711867   20.993495    ( 0.0000,  0.0000,  0.0000)
   6 Na     5.930080    0.000000   22.260606    ( 0.0000,  0.0000,  0.0000)
   7 Na     5.930080    3.423733   23.611487    ( 0.0000,  0.0000,  0.0000)
   8 Na     2.965040    1.711867   24.592631    ( 0.0000,  0.0000,  0.0000)
   9 Na     2.965040    5.135600   25.822644    ( 0.0000,  0.0000,  0.0000)

Unit cell:
           periodic     x           y           z      points  spacing
  1. axis:    yes    5.930080    0.000000    0.000000    32     0.1605
  2. axis:    yes    2.965040    5.135600    0.000000    32     0.1605
  3. axis:    no     0.000000    0.000000   40.894253   216     0.1893

  Lengths:   5.930080   5.930080  40.894253
  Angles:   90.000000  90.000000  60.000000

Effective grid spacing dv^(1/3) = 0.1779

     iter     time        total  log10-change:
                         energy   eigst   dens
iter:   1 18:22:55   -12.297492   -3.53
iter:   2 18:22:57   -12.293258   -4.57  -2.49
iter:   3 18:22:59   -12.291770c  -4.95  -2.76
iter:   4 18:23:01   -12.291888c  -5.42  -3.22
iter:   5 18:23:04   -12.291757c  -5.75  -3.21
iter:   6 18:23:06   -12.291732c  -6.05  -3.50
iter:   7 18:23:08   -12.291722c  -6.33  -3.89
iter:   8 18:23:10   -12.291723c  -6.76  -4.47c
iter:   9 18:23:13   -12.291723c  -7.06  -4.57c
iter:  10 18:23:15   -12.291722c  -7.46c -4.95c

Converged after 10 iterations.

Dipole moment: (0.000000, -0.000000, 0.000000) |e|*Ang

Energy contributions relative to reference atoms: (reference = -44186.104977)

Kinetic:        +11.609786
Potential:      -10.334923
External:        +0.000000
XC:             -13.247967
Entropy (-ST):   -0.001993
Local:           -0.317621
SIC:             +0.000000
--------------------------
Free energy:    -12.292718
Extrapolated:   -12.291722

Showing only first 2 kpts
 Kpt  Band  Eigenvalues  Occupancy
  0    33     -2.22904    2.00000
  0    34     -1.14177    0.00000
  0    35     -0.26355    0.00000
  0    36     -0.24285    0.00000

  1    33     -2.27262    2.00000
  1    34     -1.18426    0.00000
  1    35     -0.16869    0.00000
  1    36      0.02075    0.00000


Fermi level: -1.76816

No gap

Forces in eV/Ang:
  0 Na    0.00000    0.00000    0.01254
  1 Na    0.00000   -0.00000    0.02132
  2 Na   -0.00000    0.00000   -0.01339
  3 Na    0.00000    0.00000   -0.01056
  4 Na    0.00000    0.00000    0.01373
  5 Na   -0.00000   -0.00000   -0.01373
  6 Na    0.00000   -0.00000    0.01056
  7 Na    0.00000   -0.00000    0.01339
  8 Na   -0.00000    0.00000   -0.02132
  9 Na    0.00000   -0.00000   -0.01254

System changes: positions 

Initializing position-dependent things.

Density initialized from wave functions
                                  
                                  
                                  
                                  
                  Na              
                                  
                                  
                                  
               Na       Na        
                                  
                                  
                     Na           
               Na       Na        
                                  
                                  
                                  
               Na    Na Na        
                                  
                                  
                                  
       Na                         
                                  
                                  
                                  
                                  

Positions:
   0 Na    -0.000000    0.000000   15.088645    ( 0.0000,  0.0000,  0.0000)
   1 Na     5.930080    3.423733   16.330960    ( 0.0000,  0.0000,  0.0000)
   2 Na     2.965040    1.711867   17.239235    ( 0.0000,  0.0000,  0.0000)
   3 Na     5.930080    0.000000   18.649299    ( 0.0000,  0.0000,  0.0000)
   4 Na     5.930080    3.423733   19.936129    ( 0.0000,  0.0000,  0.0000)
   5 Na     2.965040    1.711867   20.958125    ( 0.0000,  0.0000,  0.0000)
   6 Na     5.930080    0.000000   22.244954    ( 0.0000,  0.0000,  0.0000)
   7 Na     5.930080    3.423733   23.655018    ( 0.0000,  0.0000,  0.0000)
   8 Na     2.965040    1.711867   24.563294    ( 0.0000,  0.0000,  0.0000)
   9 Na     2.965040    5.135600   25.805608    ( 0.0000,  0.0000,  0.0000)

Unit cell:
           periodic     x           y           z      points  spacing
  1. axis:    yes    5.930080    0.000000    0.000000    32     0.1605
  2. axis:    yes    2.965040    5.135600    0.000000    32     0.1605
  3. axis:    no     0.000000    0.000000   40.894253   216     0.1893

  Lengths:   5.930080   5.930080  40.894253
  Angles:   90.000000  90.000000  60.000000

Effective grid spacing dv^(1/3) = 0.1779

     iter     time        total  log10-change:
                         energy   eigst   dens
iter:   1 18:23:19   -12.295792   -3.02
iter:   2 18:23:22   -12.294294   -4.07  -2.64
iter:   3 18:23:24   -12.293807c  -4.60  -2.82
iter:   4 18:23:26   -12.294031c  -4.89  -2.98
iter:   5 18:23:28   -12.294009c  -5.11  -3.18
iter:   6 18:23:31   -12.294019c  -5.52  -3.59
iter:   7 18:23:33   -12.294023c  -5.80  -3.86
iter:   8 18:23:35   -12.294022c  -6.15  -4.14c
iter:   9 18:23:38   -12.294023c  -6.49  -4.47c
iter:  10 18:23:41   -12.294023c  -6.84  -4.75c
iter:  11 18:23:44   -12.294023c  -7.14  -4.77c
iter:  12 18:23:46   -12.294022c  -7.46c -4.69c

Converged after 12 iterations.

Dipole moment: (0.000000, -0.000000, 0.000000) |e|*Ang

Energy contributions relative to reference atoms: (reference = -44186.104977)

Kinetic:        +11.770710
Potential:      -10.452021
External:        +0.000000
XC:             -13.294153
Entropy (-ST):   -0.002061
Local:           -0.317529
SIC:             +0.000000
--------------------------
Free energy:    -12.295053
Extrapolated:   -12.294022

Showing only first 2 kpts
 Kpt  Band  Eigenvalues  Occupancy
  0    33     -2.21917    2.00000
  0    34     -1.12959    0.00000
  0    35     -0.26751    0.00000
  0    36     -0.24431    0.00000

  1    33     -2.26272    2.00000
  1    34     -1.17209    0.00000
  1    35     -0.15627    0.00000
  1    36      0.01748    0.00000


Fermi level: -1.77023

No gap

Forces in eV/Ang:
  0 Na    0.00000    0.00000    0.00822
  1 Na   -0.00000   -0.00000    0.01869
  2 Na    0.00000    0.00000    0.00138
  3 Na   -0.00000    0.00000   -0.02385
  4 Na    0.00000    0.00000    0.00726
  5 Na    0.00000   -0.00000   -0.00726
  6 Na   -0.00000   -0.00000    0.02385
  7 Na   -0.00000   -0.00000   -0.00138
  8 Na    0.00000    0.00000   -0.01869
  9 Na    0.00000   -0.00000   -0.00822

System changes: positions 

Initializing position-dependent things.

Density initialized from wave functions
                                  
                                  
                                  
                                  
                  Na              
                                  
                                  
                        Na        
               Na                 
                                  
                                  
                     Na           
               Na       Na        
                                  
                                  
                                  
                     Na Na        
               Na                 
                                  
                                  
       Na                         
                                  
                                  
                                  
                                  

Positions:
   0 Na    -0.000000    0.000000   15.101265    ( 0.0000,  0.0000,  0.0000)
   1 Na     5.930080    3.423733   16.347138    ( 0.0000,  0.0000,  0.0000)
   2 Na     2.965040    1.711867   17.215330    ( 0.0000,  0.0000,  0.0000)
   3 Na     5.930080    0.000000   18.648939    ( 0.0000,  0.0000,  0.0000)
   4 Na     5.930080    3.423733   19.946405    ( 0.0000,  0.0000,  0.0000)
   5 Na     2.965040    1.711867   20.947848    ( 0.0000,  0.0000,  0.0000)
   6 Na     5.930080    0.000000   22.245314    ( 0.0000,  0.0000,  0.0000)
   7 Na     5.930080    3.423733   23.678923    ( 0.0000,  0.0000,  0.0000)
   8 Na     2.965040    1.711867   24.547115    ( 0.0000,  0.0000,  0.0000)
   9 Na     2.965040    5.135600   25.792988    ( 0.0000,  0.0000,  0.0000)

Unit cell:
           periodic     x           y           z      points  spacing
  1. axis:    yes    5.930080    0.000000    0.000000    32     0.1605
  2. axis:    yes    2.965040    5.135600    0.000000    32     0.1605
  3. axis:    no     0.000000    0.000000   40.894253   216     0.1893

  Lengths:   5.930080   5.930080  40.894253
  Angles:   90.000000  90.000000  60.000000

Effective grid spacing dv^(1/3) = 0.1779

     iter     time        total  log10-change:
                         energy   eigst   dens
iter:   1 18:23:50   -12.297616   -3.47
iter:   2 18:23:52   -12.295545   -4.55  -2.63
iter:   3 18:23:55   -12.294842c  -5.05  -2.86
iter:   4 18:23:57   -12.294609c  -5.26  -3.07
iter:   5 18:23:59   -12.294609c  -5.80  -3.48
iter:   6 18:24:01   -12.294617c  -6.20  -3.50
iter:   7 18:24:04   -12.294634c  -5.94  -3.54
iter:   8 18:24:06   -12.294634c  -6.44  -4.39c
iter:   9 18:24:08   -12.294635c  -6.79  -4.41c
iter:  10 18:24:10   -12.294635c  -7.05  -4.54c
iter:  11 18:24:13   -12.294635c  -7.39  -5.05c
iter:  12 18:24:15   -12.294635c  -7.71c -5.14c

Converged after 12 iterations.

Dipole moment: (0.000000, -0.000000, 0.000000) |e|*Ang

Energy contributions relative to reference atoms: (reference = -44186.104977)

Kinetic:        +11.877766
Potential:      -10.528389
External:        +0.000000
XC:             -13.325405
Entropy (-ST):   -0.002073
Local:           -0.317570
SIC:             +0.000000
--------------------------
Free energy:    -12.295671
Extrapolated:   -12.294635

Showing only first 2 kpts
 Kpt  Band  Eigenvalues  Occupancy
  0    33     -2.21445    2.00000
  0    34     -1.12289    0.00000
  0    35     -0.27027    0.00000
  0    36     -0.24567    0.00000

  1    33     -2.25799    2.00000
  1    34     -1.16540    0.00000
  1    35     -0.14849    0.00000
  1    36      0.01508    0.00000


Fermi level: -1.77167

No gap

Forces in eV/Ang:
  0 Na    0.00000    0.00000    0.00062
  1 Na   -0.00000   -0.00000    0.01534
  2 Na    0.00000    0.00000    0.01040
  3 Na    0.00000    0.00000   -0.02029
  4 Na   -0.00000    0.00000    0.01025
  5 Na    0.00000   -0.00000   -0.01025
  6 Na    0.00000    0.00000    0.02029
  7 Na   -0.00000    0.00000   -0.01040
  8 Na    0.00000    0.00000   -0.01534
  9 Na    0.00000   -0.00000   -0.00062

System changes: positions 

Initializing position-dependent things.

Density initialized from wave functions
                                  
                                  
                                  
                                  
                  Na              
                                  
                                  
                        Na        
               Na                 
                                  
                                  
                     Na           
               Na       Na        
                                  
                                  
                                  
                     Na Na        
               Na                 
                                  
                                  
       Na                         
                                  
                                  
                                  
                                  

Positions:
   0 Na    -0.000000    0.000000   15.105792    ( 0.0000,  0.0000,  0.0000)
   1 Na     5.930080    3.423733   16.352044    ( 0.0000,  0.0000,  0.0000)
   2 Na     2.965040    1.711867   17.208517    ( 0.0000,  0.0000,  0.0000)
   3 Na     5.930080    0.000000   18.646217    ( 0.0000,  0.0000,  0.0000)
   4 Na     5.930080    3.423733   19.947088    ( 0.0000,  0.0000,  0.0000)
   5 Na     2.965040    1.711867   20.947165    ( 0.0000,  0.0000,  0.0000)
   6 Na     5.930080    0.000000   22.248036    ( 0.0000,  0.0000,  0.0000)
   7 Na     5.930080    3.423733   23.685736    ( 0.0000,  0.0000,  0.0000)
   8 Na     2.965040    1.711867   24.542209    ( 0.0000,  0.0000,  0.0000)
   9 Na     2.965040    5.135600   25.788461    ( 0.0000,  0.0000,  0.0000)

Unit cell:
           periodic     x           y           z      points  spacing
  1. axis:    yes    5.930080    0.000000    0.000000    32     0.1605
  2. axis:    yes    2.965040    5.135600    0.000000    32     0.1605
  3. axis:    no     0.000000    0.000000   40.894253   216     0.1893

  Lengths:   5.930080   5.930080  40.894253
  Angles:   90.000000  90.000000  60.000000

Effective grid spacing dv^(1/3) = 0.1779

     iter     time        total  log10-change:
                         energy   eigst   dens
iter:   1 18:24:19   -12.296027   -4.28
iter:   2 18:24:22   -12.295095   -5.26  -2.82
iter:   3 18:24:24   -12.294800c  -5.69  -3.09
iter:   4 18:24:26   -12.294720c  -5.96  -3.38
iter:   5 18:24:28   -12.294717c  -6.52  -3.92
iter:   6 18:24:31   -12.294719c  -6.95  -4.00
iter:   7 18:24:33   -12.294717c  -6.92  -4.07c
iter:   8 18:24:35   -12.294717c  -7.41c -4.88c

Converged after 8 iterations.

Dipole moment: (0.000000, -0.000000, 0.000000) |e|*Ang

Energy contributions relative to reference atoms: (reference = -44186.104977)

Kinetic:        +11.956230
Potential:      -10.590697
External:        +0.000000
XC:             -13.341344
Entropy (-ST):   -0.002088
Local:           -0.317862
SIC:             +0.000000
--------------------------
Free energy:    -12.295761
Extrapolated:   -12.294717

Showing only first 2 kpts
 Kpt  Band  Eigenvalues  Occupancy
  0    33     -2.21294    2.00000
  0    34     -1.12063    0.00000
  0    35     -0.27088    0.00000
  0    36     -0.24591    0.00000

  1    33     -2.25648    2.00000
  1    34     -1.16314    0.00000
  1    35     -0.14585    0.00000
  1    36      0.01454    0.00000


Fermi level: -1.77179

No gap

Forces in eV/Ang:
  0 Na    0.00000    0.00000   -0.00220
  1 Na    0.00000   -0.00000    0.01357
  2 Na    0.00000    0.00000    0.01254
  3 Na    0.00000    0.00000   -0.01616
  4 Na    0.00000    0.00000    0.01228
  5 Na    0.00000   -0.00000   -0.01228
  6 Na   -0.00000   -0.00000    0.01616
  7 Na    0.00000   -0.00000   -0.01254
  8 Na    0.00000    0.00000   -0.01357
  9 Na   -0.00000   -0.00000    0.00220

System changes: positions 

Initializing position-dependent things.

Density initialized from wave functions
                                  
                                  
                                  
                                  
                  Na              
                                  
                                  
                        Na        
               Na                 
                                  
                                  
                     Na           
               Na       Na        
                                  
                                  
                                  
                     Na Na        
               Na                 
                                  
                                  
       Na                         
                                  
                                  
                                  
                                  

Positions:
   0 Na     0.000000    0.000000   15.108008    ( 0.0000,  0.0000,  0.0000)
   1 Na     5.930080    3.423733   16.354706    ( 0.0000,  0.0000,  0.0000)
   2 Na     2.965040    1.711867   17.205368    ( 0.0000,  0.0000,  0.0000)
   3 Na     5.930080    0.000000   18.644543    ( 0.0000,  0.0000,  0.0000)
   4 Na     5.930080    3.423733   19.947588    ( 0.0000,  0.0000,  0.0000)
   5 Na     2.965040    1.711867   20.946665    ( 0.0000,  0.0000,  0.0000)
   6 Na     5.930080    0.000000   22.249710    ( 0.0000,  0.0000,  0.0000)
   7 Na     5.930080    3.423733   23.688885    ( 0.0000,  0.0000,  0.0000)
   8 Na     2.965040    1.711867   24.539547    ( 0.0000,  0.0000,  0.0000)
   9 Na     2.965040    5.135600   25.786245    ( 0.0000,  0.0000,  0.0000)

Unit cell:
           periodic     x           y           z      points  spacing
  1. axis:    yes    5.930080    0.000000    0.000000    32     0.1605
  2. axis:    yes    2.965040    5.135600    0.000000    32     0.1605
  3. axis:    no     0.000000    0.000000   40.894253   216     0.1893

  Lengths:   5.930080   5.930080  40.894253
  Angles:   90.000000  90.000000  60.000000

Effective grid spacing dv^(1/3) = 0.1779

     iter     time        total  log10-change:
                         energy   eigst   dens
iter:   1 18:24:39   -12.295037   -4.86
iter:   2 18:24:42   -12.294835   -5.76  -3.15
iter:   3 18:24:44   -12.294767c  -6.18  -3.41
iter:   4 18:24:46   -12.294742c  -6.47  -3.67
iter:   5 18:24:48   -12.294742c  -7.05  -4.23c
iter:   6 18:24:51   -12.294742c  -7.48c -4.25c

Converged after 6 iterations.

Dipole moment: (0.000000, 0.000000, 0.000000) |e|*Ang

Energy contributions relative to reference atoms: (reference = -44186.104977)

Kinetic:        +11.943636
Potential:      -10.574870
External:        +0.000000
XC:             -13.341904
Entropy (-ST):   -0.002096
Local:           -0.320555
SIC:             +0.000000
--------------------------
Free energy:    -12.295790
Extrapolated:   -12.294742

Showing only first 2 kpts
 Kpt  Band  Eigenvalues  Occupancy
  0    33     -2.21225    2.00000
  0    34     -1.11952    0.00000
  0    35     -0.27132    0.00000
  0    36     -0.24619    0.00000

  1    33     -2.25578    2.00000
  1    34     -1.16204    0.00000
  1    35     -0.14466    0.00000
  1    36      0.01413    0.00000


Fermi level: -1.77197

No gap

Forces in eV/Ang:
  0 Na   -0.00000    0.00000   -0.00405
  1 Na   -0.00000   -0.00000    0.01205
  2 Na    0.00000    0.00000    0.01632
  3 Na    0.00000    0.00000   -0.01306
  4 Na   -0.00000    0.00000    0.01336
  5 Na   -0.00000   -0.00000   -0.01336
  6 Na    0.00000   -0.00000    0.01306
  7 Na    0.00000    0.00000   -0.01632
  8 Na   -0.00000    0.00000   -0.01205
  9 Na   -0.00000    0.00000    0.00405

System changes: positions 

Initializing position-dependent things.

Density initialized from wave functions
                                  
                                  
                                  
                                  
                  Na              
                                  
                                  
                        Na        
               Na                 
                                  
                                  
                     Na           
               Na       Na        
                                  
                                  
                                  
                     Na Na        
               Na                 
                                  
                                  
       Na                         
                                  
                                  
                                  
                                  

Positions:
   0 Na     0.000000    0.000000   15.107693    ( 0.0000,  0.0000,  0.0000)
   1 Na     5.930080    3.423733   16.354089    ( 0.0000,  0.0000,  0.0000)
   2 Na     2.965040    1.711867   17.207734    ( 0.0000,  0.0000,  0.0000)
   3 Na     5.930080    0.000000   18.641890    ( 0.0000,  0.0000,  0.0000)
   4 Na     5.930080    3.423733   19.945303    ( 0.0000,  0.0000,  0.0000)
   5 Na     2.965040    1.711867   20.948950    ( 0.0000,  0.0000,  0.0000)
   6 Na     5.930080    0.000000   22.252363    ( 0.0000,  0.0000,  0.0000)
   7 Na     5.930080    3.423733   23.686520    ( 0.0000,  0.0000,  0.0000)
   8 Na     2.965040    1.711867   24.540164    ( 0.0000,  0.0000,  0.0000)
   9 Na     2.965040    5.135600   25.786561    ( 0.0000,  0.0000,  0.0000)

Unit cell:
           periodic     x           y           z      points  spacing
  1. axis:    yes    5.930080    0.000000    0.000000    32     0.1605
  2. axis:    yes    2.965040    5.135600    0.000000    32     0.1605
  3. axis:    no     0.000000    0.000000   40.894253   216     0.1893

  Lengths:   5.930080   5.930080  40.894253
  Angles:   90.000000  90.000000  60.000000

Effective grid spacing dv^(1/3) = 0.1779

     iter     time        total  log10-change:
                         energy   eigst   dens
iter:   1 18:24:55   -12.294877   -5.19
iter:   2 18:24:57   -12.294810   -6.15  -3.38
iter:   3 18:25:00   -12.294789c  -6.58  -3.66
iter:   4 18:25:02   -12.294782c  -6.91  -3.96
iter:   5 18:25:04   -12.294782c  -7.47c -4.38c

Converged after 5 iterations.

Dipole moment: (0.000000, -0.000000, 0.000000) |e|*Ang

Energy contributions relative to reference atoms: (reference = -44186.104977)

Kinetic:        +11.956460
Potential:      -10.587748
External:        +0.000000
XC:             -13.344636
Entropy (-ST):   -0.002115
Local:           -0.317800
SIC:             +0.000000
--------------------------
Free energy:    -12.295840
Extrapolated:   -12.294782

Showing only first 2 kpts
 Kpt  Band  Eigenvalues  Occupancy
  0    33     -2.21280    2.00000
  0    34     -1.12009    0.00000
  0    35     -0.27139    0.00000
  0    36     -0.24643    0.00000

  1    33     -2.25634    2.00000
  1    34     -1.16261    0.00000
  1    35     -0.14547    0.00000
  1    36      0.01399    0.00000


Fermi level: -1.77182

No gap

Forces in eV/Ang:
  0 Na   -0.00000    0.00000   -0.00522
  1 Na    0.00000   -0.00000    0.01353
  2 Na    0.00000    0.00000    0.01300
  3 Na    0.00000    0.00000   -0.00951
  4 Na    0.00000    0.00000    0.01524
  5 Na    0.00000   -0.00000   -0.01524
  6 Na    0.00000   -0.00000    0.00951
  7 Na    0.00000    0.00000   -0.01300
  8 Na    0.00000    0.00000   -0.01353
  9 Na   -0.00000   -0.00000    0.00522

System changes: positions 

Initializing position-dependent things.

Density initialized from wave functions
                                  
                                  
                                  
                                  
                  Na              
                                  
                                  
                        Na        
               Na                 
                                  
                                  
                     Na           
               Na       Na        
                                  
                                  
                                  
                     Na Na        
               Na                 
                                  
                                  
       Na                         
                                  
                                  
                                  
                                  

Positions:
   0 Na    -0.000000    0.000000   15.108266    ( 0.0000,  0.0000,  0.0000)
   1 Na     5.930080    3.423733   16.357167    ( 0.0000,  0.0000,  0.0000)
   2 Na     2.965040    1.711867   17.209245    ( 0.0000,  0.0000,  0.0000)
   3 Na     5.930080    0.000000   18.637547    ( 0.0000,  0.0000,  0.0000)
   4 Na     5.930080    3.423733   19.946390    ( 0.0000,  0.0000,  0.0000)
   5 Na     2.965040    1.711867   20.947863    ( 0.0000,  0.0000,  0.0000)
   6 Na     5.930080    0.000000   22.256707    ( 0.0000,  0.0000,  0.0000)
   7 Na     5.930080    3.423733   23.685008    ( 0.0000,  0.0000,  0.0000)
   8 Na     2.965040    1.711867   24.537087    ( 0.0000,  0.0000,  0.0000)
   9 Na     2.965040    5.135600   25.785988    ( 0.0000,  0.0000,  0.0000)

Unit cell:
           periodic     x           y           z      points  spacing
  1. axis:    yes    5.930080    0.000000    0.000000    32     0.1605
  2. axis:    yes    2.965040    5.135600    0.000000    32     0.1605
  3. axis:    no     0.000000    0.000000   40.894253   216     0.1893

  Lengths:   5.930080   5.930080  40.894253
  Angles:   90.000000  90.000000  60.000000

Effective grid spacing dv^(1/3) = 0.1779

     iter     time        total  log10-change:
                         energy   eigst   dens
iter:   1 18:25:08   -12.295053   -4.90
iter:   2 18:25:11   -12.295020   -5.87  -3.42
iter:   3 18:25:13   -12.294993c  -6.39  -3.52
iter:   4 18:25:15   -12.294969c  -6.51  -3.67
iter:   5 18:25:17   -12.294969c  -7.17  -4.21c
iter:   6 18:25:20   -12.294968c  -7.48c -4.19c

Converged after 6 iterations.

Dipole moment: (0.000000, -0.000000, 0.000000) |e|*Ang

Energy contributions relative to reference atoms: (reference = -44186.104977)

Kinetic:        +11.965048
Potential:      -10.591617
External:        +0.000000
XC:             -13.347381
Entropy (-ST):   -0.002143
Local:           -0.319947
SIC:             +0.000000
--------------------------
Free energy:    -12.296040
Extrapolated:   -12.294968

Showing only first 2 kpts
 Kpt  Band  Eigenvalues  Occupancy
  0    33     -2.21222    2.00000
  0    34     -1.11909    0.00000
  0    35     -0.27137    0.00000
  0    36     -0.24668    0.00000

  1    33     -2.25575    2.00000
  1    34     -1.16161    0.00000
  1    35     -0.14562    0.00000
  1    36      0.01387    0.00000


Fermi level: -1.77117

No gap

Forces in eV/Ang:
  0 Na   -0.00000    0.00000   -0.00698
  1 Na    0.00000    0.00000    0.01082
  2 Na   -0.00000    0.00000    0.01286
  3 Na   -0.00000    0.00000   -0.00364
  4 Na   -0.00000    0.00000    0.01317
  5 Na   -0.00000    0.00000   -0.01317
  6 Na    0.00000   -0.00000    0.00364
  7 Na    0.00000   -0.00000   -0.01286
  8 Na    0.00000    0.00000   -0.01082
  9 Na   -0.00000   -0.00000    0.00698

System changes: positions 

Initializing position-dependent things.

Density initialized from wave functions
                                  
                                  
                                  
                                  
                  Na              
                                  
                                  
                        Na        
               Na                 
                                  
                                  
                     Na           
               Na       Na        
                                  
                                  
                                  
                     Na Na        
               Na                 
                                  
                                  
       Na                         
                                  
                                  
                                  
                                  

Positions:
   0 Na    -0.000000    0.000000   15.104991    ( 0.0000,  0.0000,  0.0000)
   1 Na     5.930080    3.423733   16.363569    ( 0.0000,  0.0000,  0.0000)
   2 Na     2.965040    1.711867   17.220163    ( 0.0000,  0.0000,  0.0000)
   3 Na     5.930080    0.000000   18.628817    ( 0.0000,  0.0000,  0.0000)
   4 Na     5.930080    3.423733   19.953352    ( 0.0000,  0.0000,  0.0000)
   5 Na     2.965040    1.711867   20.940901    ( 0.0000,  0.0000,  0.0000)
   6 Na     5.930080    0.000000   22.265436    ( 0.0000,  0.0000,  0.0000)
   7 Na     5.930080    3.423733   23.674090    ( 0.0000,  0.0000,  0.0000)
   8 Na     2.965040    1.711867   24.530684    ( 0.0000,  0.0000,  0.0000)
   9 Na     2.965040    5.135600   25.789262    ( 0.0000,  0.0000,  0.0000)

Unit cell:
           periodic     x           y           z      points  spacing
  1. axis:    yes    5.930080    0.000000    0.000000    32     0.1605
  2. axis:    yes    2.965040    5.135600    0.000000    32     0.1605
  3. axis:    no     0.000000    0.000000   40.894253   216     0.1893

  Lengths:   5.930080   5.930080  40.894253
  Angles:   90.000000  90.000000  60.000000

Effective grid spacing dv^(1/3) = 0.1779

     iter     time        total  log10-change:
                         energy   eigst   dens
iter:   1 18:25:24   -12.301058   -3.74
iter:   2 18:25:26   -12.296840   -4.72  -2.51
iter:   3 18:25:29   -12.295489c  -5.10  -2.80
iter:   4 18:25:31   -12.295504c  -5.68  -3.54
iter:   5 18:25:33   -12.295488c  -5.86  -3.54
iter:   6 18:25:35   -12.295489c  -6.31  -3.91
iter:   7 18:25:38   -12.295491c  -6.56  -3.98
iter:   8 18:25:40   -12.295490c  -7.00  -4.63c
iter:   9 18:25:42   -12.295490c  -7.37  -4.66c
iter:  10 18:25:44   -12.295490c  -7.71c -4.68c

Converged after 10 iterations.

Dipole moment: (0.000000, -0.000000, 0.000000) |e|*Ang

Energy contributions relative to reference atoms: (reference = -44186.104977)

Kinetic:        +11.980235
Potential:      -10.603799
External:        +0.000000
XC:             -13.353154
Entropy (-ST):   -0.002192
Local:           -0.317677
SIC:             +0.000000
--------------------------
Free energy:    -12.296587
Extrapolated:   -12.295490

Showing only first 2 kpts
 Kpt  Band  Eigenvalues  Occupancy
  0    33     -2.21099    2.00000
  0    34     -1.11741    0.00000
  0    35     -0.27013    0.00000
  0    36     -0.24680    0.00000

  1    33     -2.25451    2.00000
  1    34     -1.15996    0.00000
  1    35     -0.14817    0.00000
  1    36      0.01455    0.00000


Fermi level: -1.76829

No gap

Forces in eV/Ang:
  0 Na    0.00000    0.00000   -0.00615
  1 Na   -0.00000   -0.00000    0.00984
  2 Na   -0.00000    0.00000    0.00667
  3 Na    0.00000    0.00000    0.00518
  4 Na    0.00000    0.00000    0.00996
  5 Na    0.00000   -0.00000   -0.00996
  6 Na    0.00000   -0.00000   -0.00518
  7 Na    0.00000   -0.00000   -0.00667
  8 Na    0.00000    0.00000   -0.00984
  9 Na    0.00000   -0.00000    0.00615

Timing:                                      incl.     excl.
-------------------------------------------------------------------
Density initialized from wave functions:     3.340     2.907   0.5% |
 Symmetrize density:                         0.434     0.434   0.1% |
Forces:                                     18.796    18.796   3.3% ||
Hamiltonian:                                 6.281     0.024   0.0% |
 Atomic:                                     0.580     0.580   0.1% |
  XC Correction:                             0.000     0.000   0.0% |
 Calculate atomic Hamiltonians:              1.438     1.438   0.3% |
 Communicate:                                0.001     0.001   0.0% |
 Initialize Hamiltonian:                     0.001     0.001   0.0% |
 Poisson:                                    0.040     0.040   0.0% |
 XC 3D grid:                                 4.198     4.198   0.7% |
LCAO initialization:                         1.213     0.008   0.0% |
 LCAO eigensolver:                           0.209     0.000   0.0% |
  Calculate projections:                     0.000     0.000   0.0% |
  DenseAtomicCorrection:                     0.002     0.002   0.0% |
  Distribute overlap matrix:                 0.000     0.000   0.0% |
  Orbital Layouts:                           0.010     0.010   0.0% |
  Potential matrix:                          0.197     0.197   0.0% |
  Sum over cells:                            0.001     0.001   0.0% |
 LCAO to grid:                               0.925     0.925   0.2% |
 Set positions (LCAO WFS):                   0.071     0.012   0.0% |
  Basic WFS set positions:                   0.001     0.001   0.0% |
  Basis functions set positions:             0.000     0.000   0.0% |
  P tci:                                     0.034     0.034   0.0% |
  ST tci:                                    0.017     0.017   0.0% |
  mktci:                                     0.006     0.006   0.0% |
PWDescriptor:                                0.546     0.546   0.1% |
Redistribute:                                0.012     0.012   0.0% |
SCF-cycle:                                 328.287     1.938   0.3% |
 Davidson:                                 234.772    78.219  13.9% |-----|
  Apply H:                                  22.844    22.216   3.9% |-|
   HMM T:                                    0.628     0.628   0.1% |
  Subspace diag:                            24.815     0.083   0.0% |
   calc_h_matrix:                           17.419     6.073   1.1% |
    Apply H:                                11.347    11.026   2.0% ||
     HMM T:                                  0.321     0.321   0.1% |
   diagonalize:                              0.717     0.717   0.1% |
   rotate_psi:                               6.595     6.595   1.2% |
  calc. matrices:                           78.942    55.624   9.9% |---|
   Apply H:                                 23.319    22.705   4.0% |-|
    HMM T:                                   0.614     0.614   0.1% |
  diagonalize:                               4.383     4.383   0.8% |
  rotate_psi:                               25.570    25.570   4.5% |-|
 Density:                                   32.361     0.003   0.0% |
  Atomic density matrices:                   0.830     0.830   0.1% |
  Mix:                                      21.757    21.757   3.9% |-|
  Multipole moments:                         0.014     0.014   0.0% |
  Pseudo density:                            9.759     5.464   1.0% |
   Symmetrize density:                       4.294     4.294   0.8% |
 Hamiltonian:                               56.344     0.202   0.0% |
  Atomic:                                    4.685     4.685   0.8% |
   XC Correction:                            0.000     0.000   0.0% |
  Calculate atomic Hamiltonians:            13.419    13.419   2.4% ||
  Communicate:                               0.067     0.067   0.0% |
  Poisson:                                   0.346     0.346   0.1% |
  XC 3D grid:                               37.625    37.625   6.7% |--|
 Orthonormalize:                             2.871     0.008   0.0% |
  calc_s_matrix:                             0.610     0.610   0.1% |
  inverse-cholesky:                          0.060     0.060   0.0% |
  projections:                               1.538     1.538   0.3% |
  rotate_psi_s:                              0.654     0.654   0.1% |
Set symmetry:                                0.002     0.002   0.0% |
Other:                                     204.922   204.922  36.4% |--------------|
-------------------------------------------------------------------
Total:                                               563.399 100.0%

Memory usage: 884.27 MiB
Date: Wed Feb 26 18:28:58 2025
