
  ___ ___ ___ _ _ _  
 |   |   |_  | | | | 
 | | | | | . | | | | 
 |__ |  _|___|_____|  24.1.0
 |___|_|             

User:   husi@vera-r04-07
Date:   Wed Feb 26 19:31:18 2025
Arch:   x86_64
Pid:    1475527
CWD:    /cephyr/users/husi/Vera/A3
Python: 3.11.3
gpaw:   /apps/Arch/software/GPAW/24.1.0-foss-2023a/lib/python3.11/site-packages/gpaw
_gpaw:  /apps/Arch/software/GPAW/24.1.0-foss-2023a/lib/python3.11/site-packages/
        _gpaw.cpython-311-x86_64-linux-gnu.so
ase:    /apps/Arch/software/ASE/3.22.1-gfbf-2023a/lib/python3.11/site-packages/ase (version 3.22.1)
numpy:  /apps/Arch/software/SciPy-bundle/2023.07-gfbf-2023a/lib/python3.11/site-packages/numpy (version 1.25.1)
scipy:  /apps/Arch/software/SciPy-bundle/2023.07-gfbf-2023a/lib/python3.11/site-packages/scipy (version 1.11.1)
libxc:  6.2.2
units:  Angstrom and eV
cores: 32
OpenMP: False
OMP_NUM_THREADS: 1

Input parameters:
  kpts: [8 8 1]
  mode: {ecut: 500.0,
         name: pw}
  occupations: {fixmagmom: False,
                name: fermi-dirac,
                width: 0.01}
  xc: PBE

System changes: positions, numbers, cell, pbc, initial_charges, initial_magmoms 

Initialize ...

species:
  Na:
    name: Sodium
    id: d7ecbc49209718622bcbe287195dca2a
    Z: 11.0
    valence: 7
    core: 4
    charge: 0.0
    file: /apps/Common/software/GPAW-setups/24.1.0/Na.PBE.gz
    compensation charges: {type: gauss,
                           rc: 0.37,
                           lmax: 2}
    cutoffs: {filter: 2.17,
              core: 2.59}
    valence states:
      #              energy  rcut
      - 3s(1.00)    -2.744   1.201
      - 2p(6.00)   -28.672   1.217
      - 3p(0.00)    -0.743   1.217
      -  s          24.468   1.201
      -  d           0.000   1.238
  
    # Using partial waves for Na as LCAO basis

Reference energy: -79534.988958  # eV

Spin-paired calculation

Convergence criteria:
 Maximum [total energy] change in last 3 cyles: 0.0005 eV / valence electron
 Maximum integral of absolute [dens]ity change: 0.0001 electrons / valence electron
 Maximum integral of absolute [eigenst]ate change: 4e-08 eV^2 / valence electron
 Maximum number of scf [iter]ations: 333
 (Square brackets indicate name in SCF output, whereas a 'c' in
 the SCF output indicates the quantity has converged.)

Symmetries present (total): 4

  ( 1  0  0)  ( 0  1  0)  ( 0 -1  0)  (-1  0  0)
  ( 0  1  0)  ( 1  0  0)  (-1  0  0)  ( 0 -1  0)
  ( 0  0  1)  ( 0  0  1)  ( 0  0  1)  ( 0  0  1)

64 k-points: 8 x 8 x 1 Monkhorst-Pack grid
20 k-points in the irreducible part of the Brillouin zone
       k-points in crystal coordinates                weights
   0:     0.06250000   -0.06250000    0.00000000          2/64
   1:     0.06250000    0.06250000    0.00000000          2/64
   2:     0.18750000   -0.18750000    0.00000000          2/64
   3:     0.18750000   -0.06250000    0.00000000          4/64
   4:     0.18750000    0.06250000    0.00000000          4/64
   5:     0.18750000    0.18750000    0.00000000          2/64
   6:     0.31250000   -0.31250000    0.00000000          2/64
   7:     0.31250000   -0.18750000    0.00000000          4/64
   8:     0.31250000   -0.06250000    0.00000000          4/64
   9:     0.31250000    0.06250000    0.00000000          4/64
          ...
  19:     0.43750000    0.43750000    0.00000000          2/64

Wave functions: Plane wave expansion
  Cutoff energy: 500.000 eV
  Number of coefficients (min, max): 25240, 25535
  Pulay-stress correction: 0.000000 eV/Ang^3 (de/decut=0.000000)
  Using FFTW library
  ScaLapack parameters: grid=1x1, blocksize=None
  Wavefunction extrapolation:
    Improved wavefunction reuse through dual PAW basis 

Occupation numbers: Fermi-Dirac:
  width: 0.0100  # eV
 

Eigensolver
   Davidson(niter=2) 

Densities:
  Coarse grid: 20*20*420 grid
  Fine grid: 40*40*840 grid
  Total Charge: 0.000000 

Density mixing:
  Method: separate
  Backend: pulay
  Linear mixing parameter: 0.05
  old densities: 5
  Damping of long wavelength oscillations: 50 

Hamiltonian:
  XC and Coulomb potentials evaluated on a 40*40*840 grid
  Using the PBE Exchange-Correlation functional
  External potential:
    NoExternalPotential
 

XC parameters: PBE with 2 nearest neighbor stencil

Memory estimate:
  Process memory now: 1259.25 MiB
  Calculator: 139.89 MiB
    Density: 72.99 MiB
      Arrays: 33.33 MiB
      Localized functions: 26.84 MiB
      Mixer: 12.82 MiB
    Hamiltonian: 22.34 MiB
      Arrays: 21.79 MiB
      XC: 0.00 MiB
      Poisson: 0.00 MiB
      vbar: 0.55 MiB
    Wavefunctions: 44.56 MiB
      Arrays psit_nG: 19.48 MiB
      Eigensolver: 2.93 MiB
      Projections: 0.18 MiB
      Projectors: 13.62 MiB
      PW-descriptor: 8.36 MiB

Total number of cores used: 32
Parallelization over k-points: 4
Parallelization over states: 8

Number of atoms: 18
Number of atomic orbitals: 126
Number of bands in calculation: 80
Number of valence electrons: 126
Bands to converge: occupied

... initialized

Initializing position-dependent things.

Density initialized from atomic densities
Creating initial wave functions:
  80 bands from LCAO basis set

                     
                     
                     
                     
            Na       
                     
                     
                     
                     
       Na            
                     
            Na       
                     
                     
                     
                     
       Na            
                     
            Na       
                     
                     
                     
                     
       Na            
                     
                     
            Na       
                     
                     
                     
                     
       Na            
                     
            Na       
                     
                     
                     
                     
       Na            
                     
            Na       
                     
                     
                     
                     
       Na            
                     
                     
            Na       
                     
                     
                     
                     
       Na            
                     
            Na       
                     
                     
                     
                     
       Na            
                     
            Na       
                     
                     
                     
                     
       Na            
                     
                     
                     
                     

Positions:
   0 Na     0.000000    0.000000   15.000000    ( 0.0000,  0.0000,  0.0000)
   1 Na     1.210473    1.711867   17.965040    ( 0.0000,  0.0000,  0.0000)
   2 Na     0.000000    0.000000   20.930080    ( 0.0000,  0.0000,  0.0000)
   3 Na     1.210473    1.711867   23.895120    ( 0.0000,  0.0000,  0.0000)
   4 Na     0.000000    0.000000   26.860161    ( 0.0000,  0.0000,  0.0000)
   5 Na     1.210473    1.711867   29.825201    ( 0.0000,  0.0000,  0.0000)
   6 Na     0.000000    0.000000   32.790241    ( 0.0000,  0.0000,  0.0000)
   7 Na     1.210473    1.711867   35.755281    ( 0.0000,  0.0000,  0.0000)
   8 Na     0.000000    0.000000   38.720321    ( 0.0000,  0.0000,  0.0000)
   9 Na     1.210473    1.711867   41.685361    ( 0.0000,  0.0000,  0.0000)
  10 Na     0.000000    0.000000   44.650402    ( 0.0000,  0.0000,  0.0000)
  11 Na     1.210473    1.711867   47.615442    ( 0.0000,  0.0000,  0.0000)
  12 Na     0.000000    0.000000   50.580482    ( 0.0000,  0.0000,  0.0000)
  13 Na     1.210473    1.711867   53.545522    ( 0.0000,  0.0000,  0.0000)
  14 Na     0.000000    0.000000   56.510562    ( 0.0000,  0.0000,  0.0000)
  15 Na     1.210473    1.711867   59.475602    ( 0.0000,  0.0000,  0.0000)
  16 Na     0.000000    0.000000   62.440642    ( 0.0000,  0.0000,  0.0000)
  17 Na     1.210473    1.711867   65.405683    ( 0.0000,  0.0000,  0.0000)

Unit cell:
           periodic     x           y           z      points  spacing
  1. axis:    yes    3.631418    0.000000    0.000000    20     0.1712
  2. axis:    yes   -1.210473    3.423733    0.000000    20     0.1712
  3. axis:    no     0.000000   -0.000000   80.405683   420     0.1914

  Lengths:   3.631418   3.631418  80.405683
  Angles:   90.000000  90.000000 109.471221

Effective grid spacing dv^(1/3) = 0.1812

     iter     time        total  log10-change:
                         energy   eigst   dens
iter:   1 19:31:26   -23.649320
iter:   2 19:31:30   -24.006061   -1.44  -1.64
iter:   3 19:31:33   -23.971664   -2.22  -1.62
iter:   4 19:31:36   -23.681466   -2.86  -1.60
iter:   5 19:31:39   -23.588830   -2.96  -1.71
iter:   6 19:31:42   -23.594616   -3.00  -1.90
iter:   7 19:31:45   -23.590332c  -3.44  -2.11
iter:   8 19:31:49   -23.574779c  -3.84  -2.31
iter:   9 19:31:52   -23.570146c  -4.37  -2.58
iter:  10 19:31:55   -23.571993c  -4.86  -2.64
iter:  11 19:31:58   -23.569045c  -4.76  -2.55
iter:  12 19:32:01   -23.603834c  -5.25  -2.59
iter:  13 19:32:04   -23.560363c  -5.76  -2.22
iter:  14 19:32:08   -23.558406c  -5.63  -2.91
iter:  15 19:32:11   -23.557421c  -5.48  -3.10
iter:  16 19:32:14   -23.556787c  -5.33  -3.13
iter:  17 19:32:17   -23.556025c  -5.91  -3.05
iter:  18 19:32:20   -23.558968c  -6.58  -3.24
iter:  19 19:32:24   -23.555745c  -6.56  -2.77
iter:  20 19:32:27   -23.555566c  -6.46  -3.26
iter:  21 19:32:30   -23.555403c  -6.14  -3.37
iter:  22 19:32:33   -23.555336c  -6.58  -3.41
iter:  23 19:32:36   -23.555318c  -7.17  -3.54
iter:  24 19:32:39   -23.556025c  -7.35  -3.61
iter:  25 19:32:43   -23.555505c  -6.86  -3.08
iter:  26 19:32:46   -23.555330c  -6.89  -3.32
iter:  27 19:32:49   -23.555326c  -7.48c -3.71
iter:  28 19:32:52   -23.555326c  -8.25c -3.76
iter:  29 19:32:55   -23.555357c  -7.31  -3.75
iter:  30 19:32:59   -23.555397c  -7.86c -3.71
iter:  31 19:33:02   -23.555332c  -8.37c -3.57
iter:  32 19:33:05   -23.555315c  -8.04c -3.87
iter:  33 19:33:08   -23.555341c  -8.46c -3.99
iter:  34 19:33:11   -23.555306c  -7.97c -3.78
iter:  35 19:33:14   -23.555300c  -8.21c -4.13c

Converged after 35 iterations.

Dipole moment: (-0.000000, -0.000000, 0.000460) |e|*Ang

Energy contributions relative to reference atoms: (reference = -79534.988958)

Kinetic:        +25.539190
Potential:      -22.212005
External:        +0.000000
XC:             -26.316862
Entropy (-ST):   -0.003257
Local:           -0.563995
SIC:             +0.000000
--------------------------
Free energy:    -23.556928
Extrapolated:   -23.555300

Showing only first 2 kpts
 Kpt  Band  Eigenvalues  Occupancy
  0    61     -3.18142    2.00000
  0    62     -2.97065    2.00000
  0    63     -2.74739    2.00000
  0    64     -2.48779    2.00000

  1    61     -3.11338    2.00000
  1    62     -2.90286    2.00000
  1    63     -2.67989    2.00000
  1    64     -2.42061    2.00000


Fermi level: -0.72838

No gap

Forces in eV/Ang:
  0 Na    0.00000    0.00000    0.01322
  1 Na   -0.00000   -0.00000   -0.03273
  2 Na   -0.00000    0.00000    0.00284
  3 Na    0.00000    0.00000   -0.01000
  4 Na    0.00000    0.00000    0.01785
  5 Na    0.00000    0.00000   -0.01785
  6 Na    0.00000    0.00000    0.01217
  7 Na    0.00000    0.00000   -0.01015
  8 Na    0.00000    0.00000    0.01402
  9 Na    0.00000    0.00000   -0.01353
 10 Na    0.00000    0.00000    0.01007
 11 Na    0.00000    0.00000   -0.01235
 12 Na    0.00000    0.00000    0.01747
 13 Na    0.00000    0.00000   -0.01829
 14 Na    0.00000    0.00000    0.00923
 15 Na    0.00000    0.00000   -0.00281
 16 Na    0.00000   -0.00000    0.03231
 17 Na    0.00000    0.00000   -0.01333

System changes: positions 

Initializing position-dependent things.

Density initialized from wave functions
                     
                     
                     
                     
            Na       
                     
                     
                     
                     
       Na            
                     
            Na       
                     
                     
                     
                     
       Na            
                     
            Na       
                     
                     
                     
                     
       Na            
                     
                     
            Na       
                     
                     
                     
                     
       Na            
                     
            Na       
                     
                     
                     
                     
       Na            
                     
            Na       
                     
                     
                     
                     
       Na            
                     
                     
            Na       
                     
                     
                     
                     
       Na            
                     
            Na       
                     
                     
                     
                     
       Na            
                     
            Na       
                     
                     
                     
                     
       Na            
                     
                     
                     
                     

Positions:
   0 Na     0.000000    0.000000   15.000189    ( 0.0000,  0.0000,  0.0000)
   1 Na     1.210473    1.711867   17.964573    ( 0.0000,  0.0000,  0.0000)
   2 Na    -0.000000    0.000000   20.930121    ( 0.0000,  0.0000,  0.0000)
   3 Na     1.210473    1.711867   23.894978    ( 0.0000,  0.0000,  0.0000)
   4 Na     0.000000    0.000000   26.860416    ( 0.0000,  0.0000,  0.0000)
   5 Na     1.210473    1.711867   29.824946    ( 0.0000,  0.0000,  0.0000)
   6 Na     0.000000    0.000000   32.790415    ( 0.0000,  0.0000,  0.0000)
   7 Na     1.210473    1.711867   35.755136    ( 0.0000,  0.0000,  0.0000)
   8 Na     0.000000    0.000000   38.720522    ( 0.0000,  0.0000,  0.0000)
   9 Na     1.210473    1.711867   41.685168    ( 0.0000,  0.0000,  0.0000)
  10 Na     0.000000    0.000000   44.650545    ( 0.0000,  0.0000,  0.0000)
  11 Na     1.210473    1.711867   47.615265    ( 0.0000,  0.0000,  0.0000)
  12 Na     0.000000    0.000000   50.580731    ( 0.0000,  0.0000,  0.0000)
  13 Na     1.210473    1.711867   53.545261    ( 0.0000,  0.0000,  0.0000)
  14 Na     0.000000    0.000000   56.510694    ( 0.0000,  0.0000,  0.0000)
  15 Na     1.210473    1.711867   59.475562    ( 0.0000,  0.0000,  0.0000)
  16 Na     0.000000   -0.000000   62.441104    ( 0.0000,  0.0000,  0.0000)
  17 Na     1.210473    1.711867   65.405492    ( 0.0000,  0.0000,  0.0000)

Unit cell:
           periodic     x           y           z      points  spacing
  1. axis:    yes    3.631418    0.000000    0.000000    20     0.1712
  2. axis:    yes   -1.210473    3.423733    0.000000    20     0.1712
  3. axis:    no     0.000000   -0.000000   80.405683   420     0.1914

  Lengths:   3.631418   3.631418  80.405683
  Angles:   90.000000  90.000000 109.471221

Effective grid spacing dv^(1/3) = 0.1812

     iter     time        total  log10-change:
                         energy   eigst   dens
iter:   1 19:33:21   -23.627123   -5.66
iter:   2 19:33:24   -36.156658   -2.96  -2.14
iter:   3 19:33:27   -23.564582   -2.89  -0.99
iter:   4 19:33:30   -23.576248   -4.78  -2.57
iter:   5 19:33:34   -23.557424c  -5.56  -2.42
iter:   6 19:33:37   -23.555507c  -6.16  -2.92
iter:   7 19:33:40   -23.555375c  -6.72  -3.52
iter:   8 19:33:43   -23.555366c  -7.11  -3.85
iter:   9 19:33:46   -23.555408c  -7.39  -3.88
iter:  10 19:33:50   -23.555377c  -7.61c -3.69
iter:  11 19:33:53   -23.555605c  -7.78c -3.82
iter:  12 19:33:56   -23.555360c  -7.84c -3.38
iter:  13 19:33:59   -23.555353c  -8.24c -4.04c

Converged after 13 iterations.

Dipole moment: (-0.000000, -0.000000, -0.000583) |e|*Ang

Energy contributions relative to reference atoms: (reference = -79534.988958)

Kinetic:        +24.918830
Potential:      -21.663800
External:        +0.000000
XC:             -26.234835
Entropy (-ST):   -0.003262
Local:           -0.573918
SIC:             +0.000000
--------------------------
Free energy:    -23.556984
Extrapolated:   -23.555353

Showing only first 2 kpts
 Kpt  Band  Eigenvalues  Occupancy
  0    61     -3.18313    2.00000
  0    62     -2.97252    2.00000
  0    63     -2.74857    2.00000
  0    64     -2.48909    2.00000

  1    61     -3.11509    2.00000
  1    62     -2.90473    2.00000
  1    63     -2.68107    2.00000
  1    64     -2.42192    2.00000


Fermi level: -0.72992

No gap

Forces in eV/Ang:
  0 Na   -0.00000    0.00000    0.01414
  1 Na    0.00000    0.00000   -0.03040
  2 Na    0.00000    0.00000   -0.00047
  3 Na    0.00000    0.00000   -0.00694
  4 Na    0.00000    0.00000    0.01678
  5 Na   -0.00000   -0.00000   -0.01582
  6 Na    0.00000    0.00000    0.01146
  7 Na    0.00000   -0.00000   -0.00969
  8 Na    0.00000   -0.00000    0.01191
  9 Na    0.00000    0.00000   -0.01169
 10 Na    0.00000   -0.00000    0.00872
 11 Na   -0.00000    0.00000   -0.01261
 12 Na    0.00000    0.00000    0.01614
 13 Na    0.00000    0.00000   -0.01443
 14 Na    0.00000    0.00000    0.00571
 15 Na   -0.00000    0.00000    0.00095
 16 Na    0.00000    0.00000    0.03108
 17 Na    0.00000    0.00000   -0.01285

System changes: positions 

Initializing position-dependent things.

Density initialized from wave functions
                     
                     
                     
                     
            Na       
                     
                     
                     
                     
       Na            
                     
            Na       
                     
                     
                     
                     
       Na            
                     
            Na       
                     
                     
                     
                     
       Na            
                     
                     
            Na       
                     
                     
                     
                     
       Na            
                     
            Na       
                     
                     
                     
                     
       Na            
                     
            Na       
                     
                     
                     
                     
       Na            
                     
                     
            Na       
                     
                     
                     
                     
       Na            
                     
            Na       
                     
                     
                     
                     
       Na            
                     
            Na       
                     
                     
                     
                     
       Na            
                     
                     
                     
                     

Positions:
   0 Na    -0.000000   -0.000000   15.002768    ( 0.0000,  0.0000,  0.0000)
   1 Na     1.210473    1.711867   17.958945    ( 0.0000,  0.0000,  0.0000)
   2 Na     0.000000   -0.000000   20.930099    ( 0.0000,  0.0000,  0.0000)
   3 Na     1.210473    1.711867   23.893642    ( 0.0000,  0.0000,  0.0000)
   4 Na     0.000000   -0.000000   26.863519    ( 0.0000,  0.0000,  0.0000)
   5 Na     1.210473    1.711867   29.822000    ( 0.0000,  0.0000,  0.0000)
   6 Na     0.000000    0.000000   32.792533    ( 0.0000,  0.0000,  0.0000)
   7 Na     1.210473    1.711867   35.753348    ( 0.0000,  0.0000,  0.0000)
   8 Na     0.000000    0.000000   38.722750    ( 0.0000,  0.0000,  0.0000)
   9 Na     1.210473    1.711867   41.682984    ( 0.0000,  0.0000,  0.0000)
  10 Na     0.000000   -0.000000   44.652174    ( 0.0000,  0.0000,  0.0000)
  11 Na     1.210473    1.711867   47.612955    ( 0.0000,  0.0000,  0.0000)
  12 Na     0.000000    0.000000   50.583721    ( 0.0000,  0.0000,  0.0000)
  13 Na     1.210473    1.711867   53.542534    ( 0.0000,  0.0000,  0.0000)
  14 Na    -0.000000   -0.000000   56.511811    ( 0.0000,  0.0000,  0.0000)
  15 Na     1.210473    1.711867   59.475663    ( 0.0000,  0.0000,  0.0000)
  16 Na     0.000000    0.000000   62.446835    ( 0.0000,  0.0000,  0.0000)
  17 Na     1.210473    1.711867   65.403123    ( 0.0000,  0.0000,  0.0000)

Unit cell:
           periodic     x           y           z      points  spacing
  1. axis:    yes    3.631418    0.000000    0.000000    20     0.1712
  2. axis:    yes   -1.210473    3.423733    0.000000    20     0.1712
  3. axis:    no     0.000000   -0.000000   80.405683   420     0.1914

  Lengths:   3.631418   3.631418  80.405683
  Angles:   90.000000  90.000000 109.471221

Effective grid spacing dv^(1/3) = 0.1812

     iter     time        total  log10-change:
                         energy   eigst   dens
iter:   1 19:34:06   -23.644927   -4.19
iter:   2 19:34:09   -29.460743   -2.84  -2.11
iter:   3 19:34:12   -24.284293   -3.94  -1.17
iter:   4 19:34:15   -23.591729   -4.63  -1.60
iter:   5 19:34:18   -23.568141   -5.34  -2.30
iter:   6 19:34:22   -23.556976c  -6.04  -2.51
iter:   7 19:34:25   -23.556255c  -6.66  -3.11
iter:   8 19:34:28   -23.556267c  -6.89  -3.39
iter:   9 19:34:31   -23.556057c  -6.86  -3.39
iter:  10 19:34:34   -23.556101c  -7.11  -3.79
iter:  11 19:34:38   -23.556111c  -7.40  -3.63
iter:  12 19:34:41   -23.556050c  -7.79c -3.59
iter:  13 19:34:44   -23.556061c  -8.06c -3.86
iter:  14 19:34:47   -23.556048c  -8.19c -3.79
iter:  15 19:34:50   -23.556043c  -7.85c -3.96
iter:  16 19:34:53   -23.556034c  -8.21c -3.97
iter:  17 19:34:57   -23.556033c  -8.39c -4.25c

Converged after 17 iterations.

Dipole moment: (-0.000000, -0.000000, -0.000680) |e|*Ang

Energy contributions relative to reference atoms: (reference = -79534.988958)

Kinetic:        +25.073494
Potential:      -21.798009
External:        +0.000000
XC:             -26.255117
Entropy (-ST):   -0.003277
Local:           -0.574763
SIC:             +0.000000
--------------------------
Free energy:    -23.557672
Extrapolated:   -23.556033

Showing only first 2 kpts
 Kpt  Band  Eigenvalues  Occupancy
  0    61     -3.18350    2.00000
  0    62     -2.97431    2.00000
  0    63     -2.74695    2.00000
  0    64     -2.48821    2.00000

  1    61     -3.11545    2.00000
  1    62     -2.90652    2.00000
  1    63     -2.67946    2.00000
  1    64     -2.42104    2.00000


Fermi level: -0.72969

No gap

Forces in eV/Ang:
  0 Na    0.00000    0.00000    0.00949
  1 Na    0.00000    0.00000   -0.02376
  2 Na    0.00000    0.00000   -0.00166
  3 Na    0.00000    0.00000   -0.00580
  4 Na    0.00000    0.00000    0.01231
  5 Na    0.00000    0.00000   -0.01200
  6 Na    0.00000    0.00000    0.00868
  7 Na   -0.00000    0.00000   -0.00734
  8 Na   -0.00000    0.00000    0.00980
  9 Na    0.00000    0.00000   -0.00943
 10 Na    0.00000    0.00000    0.00736
 11 Na    0.00000   -0.00000   -0.00870
 12 Na    0.00000    0.00000    0.01207
 13 Na    0.00000    0.00000   -0.01231
 14 Na    0.00000    0.00000    0.00556
 15 Na    0.00000    0.00000    0.00157
 16 Na    0.00000    0.00000    0.02430
 17 Na    0.00000    0.00000   -0.01026

System changes: positions 

Initializing position-dependent things.

Density initialized from wave functions
                     
                     
                     
                     
            Na       
                     
                     
                     
                     
       Na            
                     
            Na       
                     
                     
                     
                     
       Na            
                     
            Na       
                     
                     
                     
                     
       Na            
                     
                     
            Na       
                     
                     
                     
                     
       Na            
                     
            Na       
                     
                     
                     
                     
       Na            
                     
            Na       
                     
                     
                     
                     
       Na            
                     
                     
            Na       
                     
                     
                     
                     
       Na            
                     
            Na       
                     
                     
                     
                     
       Na            
                     
            Na       
                     
                     
                     
                     
       Na            
                     
                     
                     
                     

Positions:
   0 Na    -0.000000   -0.000000   15.011565    ( 0.0000,  0.0000,  0.0000)
   1 Na     1.210473    1.711867   17.939533    ( 0.0000,  0.0000,  0.0000)
   2 Na     0.000000   -0.000000   20.929941    ( 0.0000,  0.0000,  0.0000)
   3 Na     1.210473    1.711867   23.889016    ( 0.0000,  0.0000,  0.0000)
   4 Na     0.000000   -0.000000   26.874171    ( 0.0000,  0.0000,  0.0000)
   5 Na     1.210473    1.711867   29.811863    ( 0.0000,  0.0000,  0.0000)
   6 Na     0.000000    0.000000   32.799822    ( 0.0000,  0.0000,  0.0000)
   7 Na     1.210473    1.711867   35.747196    ( 0.0000,  0.0000,  0.0000)
   8 Na     0.000000    0.000000   38.730467    ( 0.0000,  0.0000,  0.0000)
   9 Na     1.210473    1.711867   41.675435    ( 0.0000,  0.0000,  0.0000)
  10 Na     0.000000   -0.000000   44.657823    ( 0.0000,  0.0000,  0.0000)
  11 Na     1.210473    1.711867   47.605059    ( 0.0000,  0.0000,  0.0000)
  12 Na     0.000000    0.000000   50.593998    ( 0.0000,  0.0000,  0.0000)
  13 Na     1.210473    1.711867   53.533068    ( 0.0000,  0.0000,  0.0000)
  14 Na    -0.000000   -0.000000   56.515733    ( 0.0000,  0.0000,  0.0000)
  15 Na     1.210473    1.711867   59.476066    ( 0.0000,  0.0000,  0.0000)
  16 Na     0.000000   -0.000000   62.466604    ( 0.0000,  0.0000,  0.0000)
  17 Na     1.210473    1.711867   65.394936    ( 0.0000,  0.0000,  0.0000)

Unit cell:
           periodic     x           y           z      points  spacing
  1. axis:    yes    3.631418    0.000000    0.000000    20     0.1712
  2. axis:    yes   -1.210473    3.423733    0.000000    20     0.1712
  3. axis:    no     0.000000   -0.000000   80.405683   420     0.1914

  Lengths:   3.631418   3.631418  80.405683
  Angles:   90.000000  90.000000 109.471221

Effective grid spacing dv^(1/3) = 0.1812

     iter     time        total  log10-change:
                         energy   eigst   dens
iter:   1 19:35:03   -24.570868   -3.14
iter:   2 19:35:06   -64.420597   -0.77  -1.59
iter:   3 19:35:09   -28.961370   -0.59  -0.82
iter:   4 19:35:13   -24.053776   -1.70  -1.17
iter:   5 19:35:16   -23.957179   -2.59  -1.72
iter:   6 19:35:19   -23.600918   -3.40  -1.80
iter:   7 19:35:22   -23.594587   -4.02  -2.29
iter:   8 19:35:25   -23.589289c  -4.57  -2.34
iter:   9 19:35:29   -23.577394c  -5.09  -2.32
iter:  10 19:35:32   -23.573798c  -5.56  -2.42
iter:  11 19:35:35   -23.561716c  -6.08  -2.45
iter:  12 19:35:38   -23.561392c  -6.01  -2.77
iter:  13 19:35:41   -23.558736c  -6.13  -2.76
iter:  14 19:35:44   -23.558447c  -6.18  -2.96
iter:  15 19:35:48   -23.558069c  -6.81  -3.05
iter:  16 19:35:51   -23.557840c  -6.72  -3.06
iter:  17 19:35:54   -23.558369c  -7.12  -3.11
iter:  18 19:35:57   -23.557408c  -6.47  -2.96
iter:  19 19:36:00   -23.557172c  -6.95  -3.25
iter:  20 19:36:04   -23.557203c  -7.10  -3.57
iter:  21 19:36:07   -23.557148c  -7.71c -3.59
iter:  22 19:36:10   -23.557202c  -7.02  -3.69
iter:  23 19:36:13   -23.557227c  -7.41c -3.65
iter:  24 19:36:16   -23.557170c  -7.72c -3.60
iter:  25 19:36:19   -23.557217c  -7.68c -3.90
iter:  26 19:36:23   -23.557170c  -7.70c -3.69
iter:  27 19:36:26   -23.557243c  -7.67c -3.93
iter:  28 19:36:29   -23.557155c  -8.22c -3.56
iter:  29 19:36:32   -23.557155c  -8.83c -4.23c

Converged after 29 iterations.

Dipole moment: (-0.000000, -0.000000, 0.003725) |e|*Ang

Energy contributions relative to reference atoms: (reference = -79534.988958)

Kinetic:        +25.124500
Potential:      -21.834837
External:        +0.000000
XC:             -26.270775
Entropy (-ST):   -0.003321
Local:           -0.574383
SIC:             +0.000000
--------------------------
Free energy:    -23.558815
Extrapolated:   -23.557155

Showing only first 2 kpts
 Kpt  Band  Eigenvalues  Occupancy
  0    61     -3.18634    2.00000
  0    62     -2.98181    2.00000
  0    63     -2.74254    2.00000
  0    64     -2.48659    2.00000

  1    61     -3.11829    2.00000
  1    62     -2.91401    2.00000
  1    63     -2.67507    2.00000
  1    64     -2.41943    2.00000


Fermi level: -0.73061

No gap

Forces in eV/Ang:
  0 Na    0.00000    0.00000   -0.00180
  1 Na    0.00000    0.00000   -0.00446
  2 Na   -0.00000   -0.00000   -0.01096
  3 Na    0.00000    0.00000    0.00013
  4 Na    0.00000   -0.00000   -0.00034
  5 Na    0.00000    0.00000    0.00115
  6 Na   -0.00000    0.00000   -0.00145
  7 Na    0.00000    0.00000    0.00154
  8 Na    0.00000    0.00000   -0.00047
  9 Na    0.00000   -0.00000    0.00004
 10 Na    0.00000    0.00000   -0.00239
 11 Na    0.00000    0.00000    0.00134
 12 Na    0.00000    0.00000   -0.00081
 13 Na    0.00000    0.00000   -0.00113
 14 Na   -0.00000    0.00000    0.00056
 15 Na    0.00000    0.00000    0.01064
 16 Na   -0.00000    0.00000    0.00724
 17 Na    0.00000    0.00000   -0.00043

System changes: positions 

Initializing position-dependent things.

Density initialized from wave functions
                     
                     
                     
                     
            Na       
                     
                     
                     
                     
       Na            
                     
            Na       
                     
                     
                     
                     
       Na            
                     
            Na       
                     
                     
                     
                     
       Na            
                     
                     
            Na       
                     
                     
                     
                     
       Na            
                     
            Na       
                     
                     
                     
                     
       Na            
                     
            Na       
                     
                     
                     
                     
       Na            
                     
                     
            Na       
                     
                     
                     
                     
       Na            
                     
            Na       
                     
                     
                     
                     
       Na            
                     
            Na       
                     
                     
                     
                     
       Na            
                     
                     
                     
                     

Positions:
   0 Na    -0.000000   -0.000000   15.012317    ( 0.0000,  0.0000,  0.0000)
   1 Na     1.210473    1.711867   17.937734    ( 0.0000,  0.0000,  0.0000)
   2 Na     0.000000   -0.000000   20.929767    ( 0.0000,  0.0000,  0.0000)
   3 Na     1.210473    1.711867   23.888599    ( 0.0000,  0.0000,  0.0000)
   4 Na    -0.000000   -0.000000   26.875115    ( 0.0000,  0.0000,  0.0000)
   5 Na     1.210473    1.711867   29.810976    ( 0.0000,  0.0000,  0.0000)
   6 Na     0.000000    0.000000   32.800449    ( 0.0000,  0.0000,  0.0000)
   7 Na     1.210473    1.711867   35.746672    ( 0.0000,  0.0000,  0.0000)
   8 Na     0.000000    0.000000   38.731150    ( 0.0000,  0.0000,  0.0000)
   9 Na     1.210473    1.711867   41.674761    ( 0.0000,  0.0000,  0.0000)
  10 Na     0.000000   -0.000000   44.658290    ( 0.0000,  0.0000,  0.0000)
  11 Na     1.210473    1.711867   47.604378    ( 0.0000,  0.0000,  0.0000)
  12 Na     0.000000    0.000000   50.594902    ( 0.0000,  0.0000,  0.0000)
  13 Na     1.210473    1.711867   53.532201    ( 0.0000,  0.0000,  0.0000)
  14 Na    -0.000000   -0.000000   56.516098    ( 0.0000,  0.0000,  0.0000)
  15 Na     1.210473    1.711867   59.476257    ( 0.0000,  0.0000,  0.0000)
  16 Na     0.000000   -0.000000   62.468475    ( 0.0000,  0.0000,  0.0000)
  17 Na     1.210473    1.711867   65.394201    ( 0.0000,  0.0000,  0.0000)

Unit cell:
           periodic     x           y           z      points  spacing
  1. axis:    yes    3.631418    0.000000    0.000000    20     0.1712
  2. axis:    yes   -1.210473    3.423733    0.000000    20     0.1712
  3. axis:    no     0.000000   -0.000000   80.405683   420     0.1914

  Lengths:   3.631418   3.631418  80.405683
  Angles:   90.000000  90.000000 109.471221

Effective grid spacing dv^(1/3) = 0.1812

     iter     time        total  log10-change:
                         energy   eigst   dens
iter:   1 19:36:39   -23.794302   -4.88
iter:   2 19:36:42   -59.903640   -1.13  -1.88
iter:   3 19:36:45   -23.843110   -1.78  -0.84
iter:   4 19:36:48   -23.592833   -2.62  -1.85
iter:   5 19:36:51   -23.564817   -3.86  -2.30
iter:   6 19:36:55   -23.558468c  -4.60  -2.63
iter:   7 19:36:58   -23.557228c  -5.29  -3.03
iter:   8 19:37:01   -23.557228c  -5.91  -3.70
iter:   9 19:37:04   -23.557895c  -6.54  -3.69
iter:  10 19:37:07   -23.557195c  -6.94  -3.11
iter:  11 19:37:10   -23.557194c  -7.31  -3.93
iter:  12 19:37:14   -23.557182c  -7.55c -3.97
iter:  13 19:37:17   -23.557183c  -7.86c -4.20c

Converged after 13 iterations.

Dipole moment: (-0.000000, -0.000000, -0.000392) |e|*Ang

Energy contributions relative to reference atoms: (reference = -79534.988958)

Kinetic:        +25.113469
Potential:      -21.823817
External:        +0.000000
XC:             -26.270931
Entropy (-ST):   -0.003321
Local:           -0.574244
SIC:             +0.000000
--------------------------
Free energy:    -23.558843
Extrapolated:   -23.557183

Showing only first 2 kpts
 Kpt  Band  Eigenvalues  Occupancy
  0    61     -3.18485    2.00000
  0    62     -2.98090    2.00000
  0    63     -2.74047    2.00000
  0    64     -2.48489    2.00000

  1    61     -3.11680    2.00000
  1    62     -2.91310    2.00000
  1    63     -2.67299    2.00000
  1    64     -2.41772    2.00000


Fermi level: -0.72898

No gap

Forces in eV/Ang:
  0 Na    0.00000    0.00000   -0.00071
  1 Na    0.00000   -0.00000   -0.00744
  2 Na    0.00000    0.00000   -0.00929
  3 Na    0.00000    0.00000    0.00079
  4 Na    0.00000   -0.00000   -0.00278
  5 Na    0.00000    0.00000    0.00312
  6 Na    0.00000    0.00000   -0.00275
  7 Na    0.00000    0.00000    0.00320
  8 Na    0.00000    0.00000   -0.00287
  9 Na    0.00000    0.00000    0.00239
 10 Na    0.00000    0.00000   -0.00374
 11 Na    0.00000    0.00000    0.00222
 12 Na   -0.00000    0.00000   -0.00277
 13 Na    0.00000   -0.00000    0.00097
 14 Na    0.00000   -0.00000   -0.00066
 15 Na    0.00000   -0.00000    0.01065
 16 Na    0.00000    0.00000    0.00785
 17 Na    0.00000    0.00000    0.00044

System changes: positions 

Initializing position-dependent things.

Density initialized from wave functions
                     
                     
                     
                     
            Na       
                     
                     
                     
                     
       Na            
                     
            Na       
                     
                     
                     
                     
       Na            
                     
            Na       
                     
                     
                     
                     
       Na            
                     
                     
            Na       
                     
                     
                     
                     
       Na            
                     
            Na       
                     
                     
                     
                     
       Na            
                     
            Na       
                     
                     
                     
                     
       Na            
                     
                     
            Na       
                     
                     
                     
                     
       Na            
                     
            Na       
                     
                     
                     
                     
       Na            
                     
            Na       
                     
                     
                     
                     
       Na            
                     
                     
                     
                     

Positions:
   0 Na    -0.000000   -0.000000   15.013542    ( 0.0000,  0.0000,  0.0000)
   1 Na     1.210473    1.711867   17.934613    ( 0.0000,  0.0000,  0.0000)
   2 Na     0.000000   -0.000000   20.929347    ( 0.0000,  0.0000,  0.0000)
   3 Na     1.210473    1.711867   23.887936    ( 0.0000,  0.0000,  0.0000)
   4 Na    -0.000000   -0.000000   26.876565    ( 0.0000,  0.0000,  0.0000)
   5 Na     1.210473    1.711867   29.809612    ( 0.0000,  0.0000,  0.0000)
   6 Na     0.000000    0.000000   32.801400    ( 0.0000,  0.0000,  0.0000)
   7 Na     1.210473    1.711867   35.745904    ( 0.0000,  0.0000,  0.0000)
   8 Na     0.000000    0.000000   38.732178    ( 0.0000,  0.0000,  0.0000)
   9 Na     1.210473    1.711867   41.673739    ( 0.0000,  0.0000,  0.0000)
  10 Na     0.000000   -0.000000   44.658965    ( 0.0000,  0.0000,  0.0000)
  11 Na     1.210473    1.711867   47.603326    ( 0.0000,  0.0000,  0.0000)
  12 Na     0.000000    0.000000   50.596295    ( 0.0000,  0.0000,  0.0000)
  13 Na     1.210473    1.711867   53.530827    ( 0.0000,  0.0000,  0.0000)
  14 Na    -0.000000   -0.000000   56.516673    ( 0.0000,  0.0000,  0.0000)
  15 Na     1.210473    1.711867   59.476753    ( 0.0000,  0.0000,  0.0000)
  16 Na     0.000000   -0.000000   62.471681    ( 0.0000,  0.0000,  0.0000)
  17 Na     1.210473    1.711867   65.393026    ( 0.0000,  0.0000,  0.0000)

Unit cell:
           periodic     x           y           z      points  spacing
  1. axis:    yes    3.631418    0.000000    0.000000    20     0.1712
  2. axis:    yes   -1.210473    3.423733    0.000000    20     0.1712
  3. axis:    no     0.000000   -0.000000   80.405683   420     0.1914

  Lengths:   3.631418   3.631418  80.405683
  Angles:   90.000000  90.000000 109.471221

Effective grid spacing dv^(1/3) = 0.1812

     iter     time        total  log10-change:
                         energy   eigst   dens
iter:   1 19:37:23   -23.760614   -4.60
iter:   2 19:37:27   -55.114243   -1.39  -1.92
iter:   3 19:37:30   -23.795683   -1.88  -0.85
iter:   4 19:37:33   -23.619862   -2.98  -1.92
iter:   5 19:37:36   -23.561048   -4.27  -2.18
iter:   6 19:37:39   -23.557677c  -5.01  -2.78
iter:   7 19:37:42   -23.557226c  -5.65  -3.23
iter:   8 19:37:46   -23.557216c  -6.23  -3.73
iter:   9 19:37:49   -23.557960c  -6.80  -3.77
iter:  10 19:37:52   -23.557196c  -7.10  -3.09
iter:  11 19:37:55   -23.557187c  -7.40c -3.91
iter:  12 19:37:58   -23.557184c  -7.64c -4.07c

Converged after 12 iterations.

Dipole moment: (-0.000000, -0.000000, -0.000825) |e|*Ang

Energy contributions relative to reference atoms: (reference = -79534.988958)

Kinetic:        +25.122931
Potential:      -21.830260
External:        +0.000000
XC:             -26.273395
Entropy (-ST):   -0.003335
Local:           -0.574793
SIC:             +0.000000
--------------------------
Free energy:    -23.558851
Extrapolated:   -23.557184

Showing only first 2 kpts
 Kpt  Band  Eigenvalues  Occupancy
  0    61     -3.18428    2.00000
  0    62     -2.98090    2.00000
  0    63     -2.73882    2.00000
  0    64     -2.48367    2.00000

  1    61     -3.11624    2.00000
  1    62     -2.91310    2.00000
  1    63     -2.67135    2.00000
  1    64     -2.41651    2.00000


Fermi level: -0.72812

No gap

Forces in eV/Ang:
  0 Na   -0.00000    0.00000   -0.00162
  1 Na    0.00000    0.00000   -0.00455
  2 Na    0.00000    0.00000   -0.00922
  3 Na    0.00000    0.00000    0.00190
  4 Na    0.00000    0.00000   -0.00414
  5 Na    0.00000    0.00000    0.00621
  6 Na    0.00000    0.00000   -0.00265
  7 Na    0.00000    0.00000    0.00482
  8 Na    0.00000    0.00000   -0.00441
  9 Na   -0.00000   -0.00000    0.00352
 10 Na    0.00000    0.00000   -0.00487
 11 Na    0.00000    0.00000    0.00277
 12 Na    0.00000    0.00000   -0.00580
 13 Na    0.00000    0.00000    0.00249
 14 Na    0.00000    0.00000   -0.00097
 15 Na    0.00000    0.00000    0.00999
 16 Na    0.00000    0.00000    0.00503
 17 Na    0.00000    0.00000    0.00200

Timing:                                      incl.     excl.
-------------------------------------------------------------------
Density initialized from wave functions:     1.437     1.393   0.1% |
 Symmetrize density:                         0.045     0.045   0.0% |
Forces:                                     12.680    12.680   1.3% ||
Hamiltonian:                                 2.680     0.008   0.0% |
 Atomic:                                     0.172     0.172   0.0% |
  XC Correction:                             0.000     0.000   0.0% |
 Calculate atomic Hamiltonians:              1.168     1.168   0.1% |
 Communicate:                                0.000     0.000   0.0% |
 Initialize Hamiltonian:                     0.001     0.001   0.0% |
 Poisson:                                    0.014     0.014   0.0% |
 XC 3D grid:                                 1.318     1.318   0.1% |
LCAO initialization:                         1.809     0.008   0.0% |
 LCAO eigensolver:                           0.415     0.000   0.0% |
  Calculate projections:                     0.001     0.001   0.0% |
  DenseAtomicCorrection:                     0.007     0.007   0.0% |
  Distribute overlap matrix:                 0.000     0.000   0.0% |
  Orbital Layouts:                           0.027     0.027   0.0% |
  Potential matrix:                          0.376     0.376   0.0% |
  Sum over cells:                            0.003     0.003   0.0% |
 LCAO to grid:                               1.247     1.247   0.1% |
 Set positions (LCAO WFS):                   0.139     0.029   0.0% |
  Basic WFS set positions:                   0.001     0.001   0.0% |
  Basis functions set positions:             0.000     0.000   0.0% |
  P tci:                                     0.052     0.052   0.0% |
  ST tci:                                    0.043     0.043   0.0% |
  mktci:                                     0.014     0.014   0.0% |
PWDescriptor:                                0.404     0.404   0.0% |
Redistribute:                                0.006     0.006   0.0% |
SCF-cycle:                                 375.794     1.233   0.1% |
 Davidson:                                 289.436   105.543  10.7% |---|
  Apply H:                                  19.199    18.587   1.9% ||
   HMM T:                                    0.612     0.612   0.1% |
  Subspace diag:                            27.656     0.064   0.0% |
   calc_h_matrix:                           16.790     7.432   0.8% |
    Apply H:                                 9.358     9.053   0.9% |
     HMM T:                                  0.304     0.304   0.0% |
   diagonalize:                              1.239     1.239   0.1% |
   rotate_psi:                               9.563     9.563   1.0% |
  calc. matrices:                           89.718    70.917   7.2% |--|
   Apply H:                                 18.800    18.236   1.8% ||
    HMM T:                                   0.565     0.565   0.1% |
  diagonalize:                              10.736    10.736   1.1% |
  rotate_psi:                               36.585    36.585   3.7% ||
 Density:                                   32.445     0.002   0.0% |
  Atomic density matrices:                   0.291     0.291   0.0% |
  Mix:                                      26.354    26.354   2.7% ||
  Multipole moments:                         0.019     0.019   0.0% |
  Pseudo density:                            5.778     4.760   0.5% |
   Symmetrize density:                       1.018     1.018   0.1% |
 Hamiltonian:                               50.738     0.157   0.0% |
  Atomic:                                    2.943     2.943   0.3% |
   XC Correction:                            0.000     0.000   0.0% |
  Calculate atomic Hamiltonians:            22.089    22.089   2.2% ||
  Communicate:                               0.007     0.007   0.0% |
  Poisson:                                   0.284     0.284   0.0% |
  XC 3D grid:                               25.257    25.257   2.6% ||
 Orthonormalize:                             1.943     0.003   0.0% |
  calc_s_matrix:                             0.358     0.358   0.0% |
  inverse-cholesky:                          0.044     0.044   0.0% |
  projections:                               1.078     1.078   0.1% |
  rotate_psi_s:                              0.459     0.459   0.0% |
Set symmetry:                                0.002     0.002   0.0% |
Other:                                     594.844   594.844  60.1% |-----------------------|
-------------------------------------------------------------------
Total:                                               989.656 100.0%

Memory usage: 1.23 GiB
Date: Wed Feb 26 19:47:48 2025
