
  ___ ___ ___ _ _ _  
 |   |   |_  | | | | 
 | | | | | . | | | | 
 |__ |  _|___|_____|  24.1.0
 |___|_|             

User:   husi@vera-r04-07
Date:   Wed Feb 26 18:57:04 2025
Arch:   x86_64
Pid:    1475527
CWD:    /cephyr/users/husi/Vera/A3
Python: 3.11.3
gpaw:   /apps/Arch/software/GPAW/24.1.0-foss-2023a/lib/python3.11/site-packages/gpaw
_gpaw:  /apps/Arch/software/GPAW/24.1.0-foss-2023a/lib/python3.11/site-packages/
        _gpaw.cpython-311-x86_64-linux-gnu.so
ase:    /apps/Arch/software/ASE/3.22.1-gfbf-2023a/lib/python3.11/site-packages/ase (version 3.22.1)
numpy:  /apps/Arch/software/SciPy-bundle/2023.07-gfbf-2023a/lib/python3.11/site-packages/numpy (version 1.25.1)
scipy:  /apps/Arch/software/SciPy-bundle/2023.07-gfbf-2023a/lib/python3.11/site-packages/scipy (version 1.11.1)
libxc:  6.2.2
units:  Angstrom and eV
cores: 32
OpenMP: False
OMP_NUM_THREADS: 1

Input parameters:
  kpts: [8 8 1]
  mode: {ecut: 500.0,
         name: pw}
  occupations: {fixmagmom: False,
                name: fermi-dirac,
                width: 0.01}
  xc: PBE

System changes: positions, numbers, cell, pbc, initial_charges, initial_magmoms 

Initialize ...

species:
  Na:
    name: Sodium
    id: d7ecbc49209718622bcbe287195dca2a
    Z: 11.0
    valence: 7
    core: 4
    charge: 0.0
    file: /apps/Common/software/GPAW-setups/24.1.0/Na.PBE.gz
    compensation charges: {type: gauss,
                           rc: 0.37,
                           lmax: 2}
    cutoffs: {filter: 2.17,
              core: 2.59}
    valence states:
      #              energy  rcut
      - 3s(1.00)    -2.744   1.201
      - 2p(6.00)   -28.672   1.217
      - 3p(0.00)    -0.743   1.217
      -  s          24.468   1.201
      -  d           0.000   1.238
  
    # Using partial waves for Na as LCAO basis

Reference energy: -70697.767962  # eV

Spin-paired calculation

Convergence criteria:
 Maximum [total energy] change in last 3 cyles: 0.0005 eV / valence electron
 Maximum integral of absolute [dens]ity change: 0.0001 electrons / valence electron
 Maximum integral of absolute [eigenst]ate change: 4e-08 eV^2 / valence electron
 Maximum number of scf [iter]ations: 333
 (Square brackets indicate name in SCF output, whereas a 'c' in
 the SCF output indicates the quantity has converged.)

Symmetries present (total): 4

  ( 1  0  0)  ( 0  1  0)  ( 0 -1  0)  (-1  0  0)
  ( 0  1  0)  ( 1  0  0)  (-1  0  0)  ( 0 -1  0)
  ( 0  0  1)  ( 0  0  1)  ( 0  0  1)  ( 0  0  1)

64 k-points: 8 x 8 x 1 Monkhorst-Pack grid
20 k-points in the irreducible part of the Brillouin zone
       k-points in crystal coordinates                weights
   0:     0.06250000   -0.06250000    0.00000000          2/64
   1:     0.06250000    0.06250000    0.00000000          2/64
   2:     0.18750000   -0.18750000    0.00000000          2/64
   3:     0.18750000   -0.06250000    0.00000000          4/64
   4:     0.18750000    0.06250000    0.00000000          4/64
   5:     0.18750000    0.18750000    0.00000000          2/64
   6:     0.31250000   -0.31250000    0.00000000          2/64
   7:     0.31250000   -0.18750000    0.00000000          4/64
   8:     0.31250000   -0.06250000    0.00000000          4/64
   9:     0.31250000    0.06250000    0.00000000          4/64
          ...
  19:     0.43750000    0.43750000    0.00000000          2/64

Wave functions: Plane wave expansion
  Cutoff energy: 500.000 eV
  Number of coefficients (min, max): 23378, 23657
  Pulay-stress correction: 0.000000 eV/Ang^3 (de/decut=0.000000)
  Using FFTW library
  ScaLapack parameters: grid=1x1, blocksize=None
  Wavefunction extrapolation:
    Improved wavefunction reuse through dual PAW basis 

Occupation numbers: Fermi-Dirac:
  width: 0.0100  # eV
 

Eigensolver
   Davidson(niter=2) 

Densities:
  Coarse grid: 20*20*392 grid
  Fine grid: 40*40*784 grid
  Total Charge: 0.000000 

Density mixing:
  Method: separate
  Backend: pulay
  Linear mixing parameter: 0.05
  old densities: 5
  Damping of long wavelength oscillations: 50 

Hamiltonian:
  XC and Coulomb potentials evaluated on a 40*40*784 grid
  Using the PBE Exchange-Correlation functional
  External potential:
    NoExternalPotential
 

XC parameters: PBE with 2 nearest neighbor stencil

Memory estimate:
  Process memory now: 1125.82 MiB
  Calculator: 128.16 MiB
    Density: 67.93 MiB
      Arrays: 31.10 MiB
      Localized functions: 24.86 MiB
      Mixer: 11.96 MiB
    Hamiltonian: 20.85 MiB
      Arrays: 20.34 MiB
      XC: 0.00 MiB
      Poisson: 0.00 MiB
      vbar: 0.51 MiB
    Wavefunctions: 39.38 MiB
      Arrays psit_nG: 16.24 MiB
      Eigensolver: 2.60 MiB
      Projections: 0.14 MiB
      Projectors: 12.61 MiB
      PW-descriptor: 7.79 MiB

Total number of cores used: 32
Parallelization over k-points: 4
Parallelization over states: 8

Number of atoms: 16
Number of atomic orbitals: 112
Number of bands in calculation: 72
Number of valence electrons: 112
Bands to converge: occupied

... initialized

Initializing position-dependent things.

Density initialized from atomic densities
Creating initial wave functions:
  72 bands from LCAO basis set

                     
                     
                     
                     
            Na       
                     
                     
                     
                     
       Na            
                     
            Na       
                     
                     
                     
                     
       Na            
                     
                     
            Na       
                     
                     
                     
       Na            
                     
                     
            Na       
                     
                     
                     
                     
       Na            
                     
            Na       
                     
                     
                     
                     
       Na            
                     
                     
            Na       
                     
                     
                     
       Na            
                     
                     
            Na       
                     
                     
                     
                     
       Na            
                     
            Na       
                     
                     
                     
                     
       Na            
                     
                     
                     
                     

Positions:
   0 Na     0.000000    0.000000   15.000000    ( 0.0000,  0.0000,  0.0000)
   1 Na     1.210473    1.711867   17.965040    ( 0.0000,  0.0000,  0.0000)
   2 Na     0.000000    0.000000   20.930080    ( 0.0000,  0.0000,  0.0000)
   3 Na     1.210473    1.711867   23.895120    ( 0.0000,  0.0000,  0.0000)
   4 Na     0.000000    0.000000   26.860161    ( 0.0000,  0.0000,  0.0000)
   5 Na     1.210473    1.711867   29.825201    ( 0.0000,  0.0000,  0.0000)
   6 Na     0.000000    0.000000   32.790241    ( 0.0000,  0.0000,  0.0000)
   7 Na     1.210473    1.711867   35.755281    ( 0.0000,  0.0000,  0.0000)
   8 Na     0.000000    0.000000   38.720321    ( 0.0000,  0.0000,  0.0000)
   9 Na     1.210473    1.711867   41.685361    ( 0.0000,  0.0000,  0.0000)
  10 Na     0.000000    0.000000   44.650402    ( 0.0000,  0.0000,  0.0000)
  11 Na     1.210473    1.711867   47.615442    ( 0.0000,  0.0000,  0.0000)
  12 Na     0.000000    0.000000   50.580482    ( 0.0000,  0.0000,  0.0000)
  13 Na     1.210473    1.711867   53.545522    ( 0.0000,  0.0000,  0.0000)
  14 Na     0.000000    0.000000   56.510562    ( 0.0000,  0.0000,  0.0000)
  15 Na     1.210473    1.711867   59.475602    ( 0.0000,  0.0000,  0.0000)

Unit cell:
           periodic     x           y           z      points  spacing
  1. axis:    yes    3.631418    0.000000    0.000000    20     0.1712
  2. axis:    yes   -1.210473    3.423733    0.000000    20     0.1712
  3. axis:    no     0.000000   -0.000000   74.475602   392     0.1900

  Lengths:   3.631418   3.631418  74.475602
  Angles:   90.000000  90.000000 109.471221

Effective grid spacing dv^(1/3) = 0.1808

     iter     time        total  log10-change:
                         energy   eigst   dens
iter:   1 18:57:10   -20.991688
iter:   2 18:57:12   -21.238623   -1.44  -1.64
iter:   3 18:57:15   -21.167708   -2.22  -1.63
iter:   4 18:57:18   -20.963411   -2.79  -1.63
iter:   5 18:57:20   -20.934585   -2.88  -1.75
iter:   6 18:57:23   -20.920605c  -3.12  -1.92
iter:   7 18:57:25   -20.922276c  -3.51  -2.14
iter:   8 18:57:28   -20.946856c  -3.95  -2.31
iter:   9 18:57:30   -20.942735c  -4.55  -2.23
iter:  10 18:57:33   -20.907829c  -4.73  -2.22
iter:  11 18:57:35   -20.904881c  -4.99  -2.70
iter:  12 18:57:38   -20.901972c  -4.60  -2.82
iter:  13 18:57:41   -20.903368c  -5.48  -2.87
iter:  14 18:57:43   -20.899301c  -5.43  -2.75
iter:  15 18:57:46   -20.899141c  -5.44  -3.28
iter:  16 18:57:48   -20.898484c  -6.20  -3.08
iter:  17 18:57:51   -20.898329c  -6.17  -3.40
iter:  18 18:57:53   -20.898255c  -6.41  -3.47
iter:  19 18:57:56   -20.900411c  -6.52  -3.52
iter:  20 18:57:58   -20.898149c  -6.80  -2.83
iter:  21 18:58:01   -20.898140c  -6.96  -3.77
iter:  22 18:58:03   -20.898145c  -6.81  -3.72
iter:  23 18:58:06   -20.898122c  -7.21  -3.74
iter:  24 18:58:09   -20.898120c  -7.18  -3.99
iter:  25 18:58:11   -20.898175c  -7.75c -4.13c

Converged after 25 iterations.

Dipole moment: (-0.000000, -0.000000, -0.001266) |e|*Ang

Energy contributions relative to reference atoms: (reference = -70697.767962)

Kinetic:        +22.728737
Potential:      -19.781218
External:        +0.000000
XC:             -23.337978
Entropy (-ST):   -0.002874
Local:           -0.506279
SIC:             +0.000000
--------------------------
Free energy:    -20.899612
Extrapolated:   -20.898175

Showing only first 2 kpts
 Kpt  Band  Eigenvalues  Occupancy
  0    54     -3.27978    2.00000
  0    55     -3.04984    2.00000
  0    56     -2.79892    2.00000
  0    57     -2.50515    2.00000

  1    54     -3.21169    2.00000
  1    55     -2.98203    2.00000
  1    56     -2.73143    2.00000
  1    57     -2.43802    2.00000


Fermi level: -0.79184

No gap

Forces in eV/Ang:
  0 Na    0.00000    0.00000    0.03001
  1 Na    0.00000    0.00000   -0.04169
  2 Na    0.00000    0.00000    0.00408
  3 Na    0.00000    0.00000   -0.00460
  4 Na    0.00000    0.00000    0.00988
  5 Na    0.00000    0.00000   -0.01376
  6 Na    0.00000    0.00000    0.01802
  7 Na    0.00000    0.00000   -0.00789
  8 Na    0.00000    0.00000    0.00962
  9 Na    0.00000    0.00000   -0.01376
 10 Na    0.00000    0.00000    0.01625
 11 Na    0.00000    0.00000   -0.01048
 12 Na    0.00000    0.00000    0.00555
 13 Na    0.00000    0.00000   -0.00675
 14 Na    0.00000    0.00000    0.04106
 15 Na    0.00000    0.00000   -0.03028

System changes: positions 

Initializing position-dependent things.

Density initialized from wave functions
                     
                     
                     
                     
            Na       
                     
                     
                     
                     
       Na            
                     
            Na       
                     
                     
                     
                     
       Na            
                     
                     
            Na       
                     
                     
                     
       Na            
                     
                     
            Na       
                     
                     
                     
                     
       Na            
                     
            Na       
                     
                     
                     
                     
       Na            
                     
                     
            Na       
                     
                     
                     
       Na            
                     
                     
            Na       
                     
                     
                     
                     
       Na            
                     
            Na       
                     
                     
                     
                     
       Na            
                     
                     
                     
                     

Positions:
   0 Na     0.000000    0.000000   15.000429    ( 0.0000,  0.0000,  0.0000)
   1 Na     1.210473    1.711867   17.964445    ( 0.0000,  0.0000,  0.0000)
   2 Na     0.000000    0.000000   20.930139    ( 0.0000,  0.0000,  0.0000)
   3 Na     1.210473    1.711867   23.895055    ( 0.0000,  0.0000,  0.0000)
   4 Na     0.000000    0.000000   26.860302    ( 0.0000,  0.0000,  0.0000)
   5 Na     1.210473    1.711867   29.825004    ( 0.0000,  0.0000,  0.0000)
   6 Na     0.000000    0.000000   32.790498    ( 0.0000,  0.0000,  0.0000)
   7 Na     1.210473    1.711867   35.755168    ( 0.0000,  0.0000,  0.0000)
   8 Na     0.000000    0.000000   38.720459    ( 0.0000,  0.0000,  0.0000)
   9 Na     1.210473    1.711867   41.685165    ( 0.0000,  0.0000,  0.0000)
  10 Na     0.000000    0.000000   44.650634    ( 0.0000,  0.0000,  0.0000)
  11 Na     1.210473    1.711867   47.615292    ( 0.0000,  0.0000,  0.0000)
  12 Na     0.000000    0.000000   50.580561    ( 0.0000,  0.0000,  0.0000)
  13 Na     1.210473    1.711867   53.545426    ( 0.0000,  0.0000,  0.0000)
  14 Na     0.000000    0.000000   56.511149    ( 0.0000,  0.0000,  0.0000)
  15 Na     1.210473    1.711867   59.475170    ( 0.0000,  0.0000,  0.0000)

Unit cell:
           periodic     x           y           z      points  spacing
  1. axis:    yes    3.631418    0.000000    0.000000    20     0.1712
  2. axis:    yes   -1.210473    3.423733    0.000000    20     0.1712
  3. axis:    no     0.000000   -0.000000   74.475602   392     0.1900

  Lengths:   3.631418   3.631418  74.475602
  Angles:   90.000000  90.000000 109.471221

Effective grid spacing dv^(1/3) = 0.1808

     iter     time        total  log10-change:
                         energy   eigst   dens
iter:   1 18:58:16   -24.235413   -4.03
iter:   2 18:58:19  -203.652066   +0.28  -1.23
iter:   3 18:58:21   -71.440784   -0.62  -0.74
iter:   4 18:58:24   -36.542551   -1.81  -0.89
iter:   5 18:58:26   -23.656503   -1.65  -0.99
iter:   6 18:58:29   -22.335583   -2.25  -1.28
iter:   7 18:58:32   -25.234427   -1.14  -1.39
iter:   8 18:58:35   -21.106359   -3.14  -1.19
iter:   9 18:58:37   -20.960602   -3.94  -1.88
iter:  10 18:58:40   -20.900253   -4.57  -2.16
iter:  11 18:58:42   -20.898934   -5.16  -2.86
iter:  12 18:58:45   -20.899333c  -5.65  -3.13
iter:  13 18:58:47   -20.898698c  -6.15  -2.98
iter:  14 18:58:50   -20.899103c  -6.49  -3.22
iter:  15 18:58:52   -20.898303c  -6.39  -3.07
iter:  16 18:58:55   -20.898817c  -6.78  -3.54
iter:  17 18:58:57   -20.898318c  -7.17  -3.14
iter:  18 18:59:00   -20.898262c  -7.36  -3.50
iter:  19 18:59:02   -20.898245c  -7.42c -3.69
iter:  20 18:59:05   -20.898250c  -7.75c -3.70
iter:  21 18:59:07   -20.898222c  -7.98c -3.67
iter:  22 18:59:10   -20.898307c  -7.40  -3.91
iter:  23 18:59:13   -20.898231c  -8.09c -3.54
iter:  24 18:59:15   -20.898225c  -8.22c -3.82
iter:  25 18:59:18   -20.898215c  -8.38c -3.97
iter:  26 18:59:20   -20.898216c  -8.40c -4.17c

Converged after 26 iterations.

Dipole moment: (-0.000000, -0.000000, -0.000135) |e|*Ang

Energy contributions relative to reference atoms: (reference = -70697.767962)

Kinetic:        +22.194404
Potential:      -19.297766
External:        +0.000000
XC:             -23.283567
Entropy (-ST):   -0.002877
Local:           -0.509848
SIC:             +0.000000
--------------------------
Free energy:    -20.899654
Extrapolated:   -20.898216

Showing only first 2 kpts
 Kpt  Band  Eigenvalues  Occupancy
  0    54     -3.27947    2.00000
  0    55     -3.04945    2.00000
  0    56     -2.79864    2.00000
  0    57     -2.50488    2.00000

  1    54     -3.21138    2.00000
  1    55     -2.98164    2.00000
  1    56     -2.73115    2.00000
  1    57     -2.43775    2.00000


Fermi level: -0.79165

No gap

Forces in eV/Ang:
  0 Na    0.00000    0.00000    0.03105
  1 Na   -0.00000    0.00000   -0.04263
  2 Na    0.00000    0.00000    0.00593
  3 Na    0.00000   -0.00000   -0.00698
  4 Na    0.00000    0.00000    0.01277
  5 Na    0.00000    0.00000   -0.01790
  6 Na    0.00000    0.00000    0.01620
  7 Na    0.00000    0.00000   -0.00949
  8 Na    0.00000    0.00000    0.00931
  9 Na    0.00000    0.00000   -0.01752
 10 Na    0.00000   -0.00000    0.01691
 11 Na   -0.00000    0.00000   -0.01155
 12 Na   -0.00000    0.00000    0.00692
 13 Na    0.00000    0.00000   -0.00574
 14 Na    0.00000    0.00000    0.04343
 15 Na    0.00000    0.00000   -0.03134

System changes: positions 

Initializing position-dependent things.

Density initialized from wave functions
                     
                     
                     
                     
            Na       
                     
                     
                     
                     
       Na            
                     
            Na       
                     
                     
                     
                     
       Na            
                     
                     
            Na       
                     
                     
                     
       Na            
                     
                     
            Na       
                     
                     
                     
                     
       Na            
                     
            Na       
                     
                     
                     
                     
       Na            
                     
                     
            Na       
                     
                     
                     
       Na            
                     
                     
            Na       
                     
                     
                     
                     
       Na            
                     
            Na       
                     
                     
                     
                     
       Na            
                     
                     
                     
                     

Positions:
   0 Na     0.000000    0.000000   15.007663    ( 0.0000,  0.0000,  0.0000)
   1 Na     1.210473    1.711867   17.954528    ( 0.0000,  0.0000,  0.0000)
   2 Na    -0.000000    0.000000   20.931573    ( 0.0000,  0.0000,  0.0000)
   3 Na     1.210473    1.711867   23.893361    ( 0.0000,  0.0000,  0.0000)
   4 Na    -0.000000    0.000000   26.863355    ( 0.0000,  0.0000,  0.0000)
   5 Na     1.210473    1.711867   29.820721    ( 0.0000,  0.0000,  0.0000)
   6 Na     0.000000    0.000000   32.794198    ( 0.0000,  0.0000,  0.0000)
   7 Na     1.210473    1.711867   35.752916    ( 0.0000,  0.0000,  0.0000)
   8 Na    -0.000000   -0.000000   38.722607    ( 0.0000,  0.0000,  0.0000)
   9 Na     1.210473    1.711867   41.680983    ( 0.0000,  0.0000,  0.0000)
  10 Na     0.000000   -0.000000   44.654578    ( 0.0000,  0.0000,  0.0000)
  11 Na     1.210473    1.711867   47.612579    ( 0.0000,  0.0000,  0.0000)
  12 Na     0.000000    0.000000   50.582209    ( 0.0000,  0.0000,  0.0000)
  13 Na     1.210473    1.711867   53.544127    ( 0.0000,  0.0000,  0.0000)
  14 Na    -0.000000    0.000000   56.521295    ( 0.0000,  0.0000,  0.0000)
  15 Na     1.210473    1.711867   59.467867    ( 0.0000,  0.0000,  0.0000)

Unit cell:
           periodic     x           y           z      points  spacing
  1. axis:    yes    3.631418    0.000000    0.000000    20     0.1712
  2. axis:    yes   -1.210473    3.423733    0.000000    20     0.1712
  3. axis:    no     0.000000   -0.000000   74.475602   392     0.1900

  Lengths:   3.631418   3.631418  74.475602
  Angles:   90.000000  90.000000 109.471221

Effective grid spacing dv^(1/3) = 0.1808

     iter     time        total  log10-change:
                         energy   eigst   dens
iter:   1 18:59:26   -21.044209   -3.78
iter:   2 18:59:29   -29.114358   -2.36  -1.98
iter:   3 18:59:31   -21.632174   -3.19  -1.04
iter:   4 18:59:34   -20.953771   -4.39  -1.57
iter:   5 18:59:36   -20.907088   -5.20  -2.18
iter:   6 18:59:39   -20.901162c  -5.89  -2.59
iter:   7 18:59:41   -20.899965c  -6.41  -2.95
iter:   8 18:59:44   -20.900516c  -6.51  -3.25
iter:   9 18:59:46   -20.900706c  -6.31  -3.05
iter:  10 18:59:49   -20.902521c  -6.55  -3.01
iter:  11 18:59:51   -20.899712c  -6.78  -2.81
iter:  12 18:59:54   -20.899676c  -6.97  -3.57
iter:  13 18:59:57   -20.899658c  -7.53c -3.68
iter:  14 19:00:00   -20.899690c  -7.64c -3.72
iter:  15 19:00:02   -20.899804c  -7.82c -3.61
iter:  16 19:00:05   -20.899691c  -7.64c -3.39
iter:  17 19:00:07   -20.899642c  -7.74c -3.66
iter:  18 19:00:10   -20.899644c  -7.89c -3.98
iter:  19 19:00:12   -20.899641c  -8.06c -4.11c

Converged after 19 iterations.

Dipole moment: (-0.000000, -0.000000, -0.000188) |e|*Ang

Energy contributions relative to reference atoms: (reference = -70697.767962)

Kinetic:        +22.234578
Potential:      -19.327684
External:        +0.000000
XC:             -23.292610
Entropy (-ST):   -0.002799
Local:           -0.512526
SIC:             +0.000000
--------------------------
Free energy:    -20.901041
Extrapolated:   -20.899641

Showing only first 2 kpts
 Kpt  Band  Eigenvalues  Occupancy
  0    54     -3.28155    2.00000
  0    55     -3.05307    2.00000
  0    56     -2.79646    2.00000
  0    57     -2.50352    2.00000

  1    54     -3.21345    2.00000
  1    55     -2.98525    2.00000
  1    56     -2.72897    2.00000
  1    57     -2.43639    2.00000


Fermi level: -0.79085

No gap

Forces in eV/Ang:
  0 Na   -0.00000    0.00000    0.02071
  1 Na    0.00000    0.00000   -0.02880
  2 Na    0.00000    0.00000    0.00051
  3 Na    0.00000    0.00000   -0.00301
  4 Na    0.00000    0.00000    0.00654
  5 Na    0.00000    0.00000   -0.01022
  6 Na    0.00000    0.00000    0.01035
  7 Na    0.00000    0.00000   -0.00489
  8 Na    0.00000   -0.00000    0.00541
  9 Na    0.00000    0.00000   -0.01112
 10 Na    0.00000    0.00000    0.00946
 11 Na   -0.00000    0.00000   -0.00669
 12 Na    0.00000    0.00000    0.00300
 13 Na    0.00000   -0.00000   -0.00087
 14 Na    0.00000    0.00000    0.02938
 15 Na    0.00000    0.00000   -0.02165

System changes: positions 

Initializing position-dependent things.

Density initialized from wave functions
                     
                     
                     
                     
            Na       
                     
                     
                     
                     
       Na            
                     
            Na       
                     
                     
                     
                     
       Na            
                     
            Na       
                     
                     
                     
                     
       Na            
                     
            Na       
                     
                     
                     
                     
       Na            
                     
                     
            Na       
                     
                     
                     
                     
       Na            
                     
            Na       
                     
                     
                     
                     
       Na            
                     
            Na       
                     
                     
                     
                     
       Na            
                     
            Na       
                     
                     
                     
                     
       Na            
                     
                     
                     
                     

Positions:
   0 Na    -0.000000   -0.000000   15.021023    ( 0.0000,  0.0000,  0.0000)
   1 Na     1.210473    1.711867   17.936200    ( 0.0000,  0.0000,  0.0000)
   2 Na    -0.000000    0.000000   20.934077    ( 0.0000,  0.0000,  0.0000)
   3 Na     1.210473    1.711867   23.890305    ( 0.0000,  0.0000,  0.0000)
   4 Na    -0.000000    0.000000   26.868906    ( 0.0000,  0.0000,  0.0000)
   5 Na     1.210473    1.711867   29.812891    ( 0.0000,  0.0000,  0.0000)
   6 Na     0.000000    0.000000   32.801016    ( 0.0000,  0.0000,  0.0000)
   7 Na     1.210473    1.711867   35.748818    ( 0.0000,  0.0000,  0.0000)
   8 Na    -0.000000   -0.000000   38.726544    ( 0.0000,  0.0000,  0.0000)
   9 Na     1.210473    1.711867   41.673291    ( 0.0000,  0.0000,  0.0000)
  10 Na     0.000000   -0.000000   44.661786    ( 0.0000,  0.0000,  0.0000)
  11 Na     1.210473    1.711867   47.607613    ( 0.0000,  0.0000,  0.0000)
  12 Na     0.000000    0.000000   50.585183    ( 0.0000,  0.0000,  0.0000)
  13 Na     1.210473    1.711867   53.541845    ( 0.0000,  0.0000,  0.0000)
  14 Na    -0.000000    0.000000   56.540047    ( 0.0000,  0.0000,  0.0000)
  15 Na     1.210473    1.711867   59.454352    ( 0.0000,  0.0000,  0.0000)

Unit cell:
           periodic     x           y           z      points  spacing
  1. axis:    yes    3.631418    0.000000    0.000000    20     0.1712
  2. axis:    yes   -1.210473    3.423733    0.000000    20     0.1712
  3. axis:    no     0.000000   -0.000000   74.475602   392     0.1900

  Lengths:   3.631418   3.631418  74.475602
  Angles:   90.000000  90.000000 109.471221

Effective grid spacing dv^(1/3) = 0.1808

     iter     time        total  log10-change:
                         energy   eigst   dens
iter:   1 19:00:18   -21.922983   -3.16
iter:   2 19:00:21   -59.797341   -0.62  -1.54
iter:   3 19:00:23   -31.410982   -0.63  -0.79
iter:   4 19:00:26   -21.288775   -2.01  -0.99
iter:   5 19:00:28   -21.112991   -2.87  -1.72
iter:   6 19:00:31   -20.939398   -3.69  -1.91
iter:   7 19:00:34   -20.905105   -4.34  -2.26
iter:   8 19:00:36   -20.907411c  -4.97  -2.78
iter:   9 19:00:39   -20.903433c  -5.51  -2.61
iter:  10 19:00:41   -20.903295c  -6.00  -2.84
iter:  11 19:00:44   -20.903702c  -6.43  -2.83
iter:  12 19:00:47   -20.901255c  -5.99  -2.79
iter:  13 19:00:49   -20.901373c  -6.57  -3.30
iter:  14 19:00:52   -20.901132c  -6.66  -3.23
iter:  15 19:00:54   -20.901236c  -6.97  -3.40
iter:  16 19:00:57   -20.901140c  -6.88  -3.33
iter:  17 19:00:59   -20.901380c  -6.93  -3.44
iter:  18 19:01:02   -20.901104c  -7.13  -3.24
iter:  19 19:01:04   -20.901058c  -7.56c -3.54
iter:  20 19:01:07   -20.901088c  -7.58c -3.76
iter:  21 19:01:09   -20.901073c  -7.48c -3.68
iter:  22 19:01:12   -20.901092c  -7.67c -3.86
iter:  23 19:01:14   -20.901072c  -8.03c -3.76
iter:  24 19:01:17   -20.901081c  -7.98c -3.95
iter:  25 19:01:20   -20.901072c  -8.38c -3.91
iter:  26 19:01:22   -20.901079c  -8.31c -3.99
iter:  27 19:01:25   -20.901067c  -8.29c -3.93
iter:  28 19:01:27   -20.901067c  -8.73c -4.31c

Converged after 28 iterations.

Dipole moment: (-0.000000, -0.000000, 0.001262) |e|*Ang

Energy contributions relative to reference atoms: (reference = -70697.767962)

Kinetic:        +22.314940
Potential:      -19.387458
External:        +0.000000
XC:             -23.317091
Entropy (-ST):   -0.002705
Local:           -0.510105
SIC:             +0.000000
--------------------------
Free energy:    -20.902420
Extrapolated:   -20.901067

Showing only first 2 kpts
 Kpt  Band  Eigenvalues  Occupancy
  0    54     -3.28154    2.00000
  0    55     -3.05583    2.00000
  0    56     -2.78937    2.00000
  0    57     -2.49771    2.00000

  1    54     -3.21344    2.00000
  1    55     -2.98800    2.00000
  1    56     -2.72190    2.00000
  1    57     -2.43060    2.00000


Fermi level: -0.78603

No gap

Forces in eV/Ang:
  0 Na    0.00000    0.00000    0.01012
  1 Na    0.00000    0.00000   -0.01080
  2 Na   -0.00000    0.00000   -0.00954
  3 Na    0.00000    0.00000    0.00230
  4 Na    0.00000    0.00000   -0.00228
  5 Na    0.00000   -0.00000    0.00020
  6 Na    0.00000    0.00000    0.00237
  7 Na    0.00000   -0.00000    0.00160
  8 Na    0.00000    0.00000   -0.00236
  9 Na    0.00000    0.00000   -0.00091
 10 Na    0.00000    0.00000    0.00108
 11 Na   -0.00000    0.00000    0.00125
 12 Na    0.00000    0.00000   -0.00223
 13 Na   -0.00000    0.00000    0.01101
 14 Na    0.00000    0.00000    0.00676
 15 Na    0.00000    0.00000   -0.00694

System changes: positions 

Initializing position-dependent things.

Density initialized from wave functions
                     
                     
                     
                     
            Na       
                     
                     
                     
                     
       Na            
                     
            Na       
                     
                     
                     
                     
       Na            
                     
            Na       
                     
                     
                     
                     
       Na            
                     
            Na       
                     
                     
                     
                     
       Na            
                     
                     
            Na       
                     
                     
                     
                     
       Na            
                     
            Na       
                     
                     
                     
                     
       Na            
                     
            Na       
                     
                     
                     
                     
       Na            
                     
            Na       
                     
                     
                     
                     
       Na            
                     
                     
                     
                     

Positions:
   0 Na    -0.000000   -0.000000   15.025223    ( 0.0000,  0.0000,  0.0000)
   1 Na     1.210473    1.711867   17.930497    ( 0.0000,  0.0000,  0.0000)
   2 Na     0.000000    0.000000   20.934661    ( 0.0000,  0.0000,  0.0000)
   3 Na     1.210473    1.711867   23.889428    ( 0.0000,  0.0000,  0.0000)
   4 Na     0.000000   -0.000000   26.870533    ( 0.0000,  0.0000,  0.0000)
   5 Na     1.210473    1.711867   29.810544    ( 0.0000,  0.0000,  0.0000)
   6 Na     0.000000    0.000000   32.803115    ( 0.0000,  0.0000,  0.0000)
   7 Na     1.210473    1.711867   35.747614    ( 0.0000,  0.0000,  0.0000)
   8 Na    -0.000000   -0.000000   38.727686    ( 0.0000,  0.0000,  0.0000)
   9 Na     1.210473    1.711867   41.670970    ( 0.0000,  0.0000,  0.0000)
  10 Na     0.000000   -0.000000   44.663978    ( 0.0000,  0.0000,  0.0000)
  11 Na     1.210473    1.711867   47.606142    ( 0.0000,  0.0000,  0.0000)
  12 Na     0.000000    0.000000   50.586039    ( 0.0000,  0.0000,  0.0000)
  13 Na     1.210473    1.711867   53.541350    ( 0.0000,  0.0000,  0.0000)
  14 Na    -0.000000    0.000000   56.545798    ( 0.0000,  0.0000,  0.0000)
  15 Na     1.210473    1.711867   59.450168    ( 0.0000,  0.0000,  0.0000)

Unit cell:
           periodic     x           y           z      points  spacing
  1. axis:    yes    3.631418    0.000000    0.000000    20     0.1712
  2. axis:    yes   -1.210473    3.423733    0.000000    20     0.1712
  3. axis:    no     0.000000   -0.000000   74.475602   392     0.1900

  Lengths:   3.631418   3.631418  74.475602
  Angles:   90.000000  90.000000 109.471221

Effective grid spacing dv^(1/3) = 0.1808

     iter     time        total  log10-change:
                         energy   eigst   dens
iter:   1 19:01:32   -21.008218   -4.19
iter:   2 19:01:35   -30.443003   -2.75  -2.05
iter:   3 19:01:37   -21.040907   -3.30  -1.02
iter:   4 19:01:40   -20.938310   -4.68  -2.01
iter:   5 19:01:42   -20.903328   -5.41  -2.25
iter:   6 19:01:45   -20.901752c  -6.15  -2.85
iter:   7 19:01:47   -20.901314c  -6.60  -3.17
iter:   8 19:01:50   -20.901415c  -6.83  -3.46
iter:   9 19:01:52   -20.901669c  -6.51  -3.36
iter:  10 19:01:55   -20.901863c  -7.03  -3.18
iter:  11 19:01:58   -20.901237c  -7.25  -3.12
iter:  12 19:02:00   -20.901229c  -7.42c -3.72
iter:  13 19:02:03   -20.901216c  -7.85c -3.73
iter:  14 19:02:05   -20.901218c  -7.89c -3.83
iter:  15 19:02:08   -20.901529c  -7.40c -3.85
iter:  16 19:02:10   -20.901204c  -8.07c -3.25
iter:  17 19:02:13   -20.901205c  -8.37c -4.09c

Converged after 17 iterations.

Dipole moment: (-0.000000, -0.000000, 0.000184) |e|*Ang

Energy contributions relative to reference atoms: (reference = -70697.767962)

Kinetic:        +22.325186
Potential:      -19.392433
External:        +0.000000
XC:             -23.321133
Entropy (-ST):   -0.002671
Local:           -0.511490
SIC:             +0.000000
--------------------------
Free energy:    -20.902540
Extrapolated:   -20.901205

Showing only first 2 kpts
 Kpt  Band  Eigenvalues  Occupancy
  0    54     -3.28430    2.00000
  0    55     -3.05938    2.00000
  0    56     -2.79004    2.00000
  0    57     -2.49880    2.00000

  1    54     -3.21620    2.00000
  1    55     -2.99155    2.00000
  1    56     -2.72258    2.00000
  1    57     -2.43169    2.00000


Fermi level: -0.78715

No gap

Forces in eV/Ang:
  0 Na   -0.00000   -0.00000    0.00577
  1 Na    0.00000    0.00000   -0.00493
  2 Na    0.00000    0.00000   -0.01040
  3 Na    0.00000    0.00000    0.00211
  4 Na    0.00000    0.00000   -0.00492
  5 Na    0.00000    0.00000    0.00329
  6 Na    0.00000    0.00000   -0.00054
  7 Na    0.00000    0.00000    0.00238
  8 Na    0.00000    0.00000   -0.00321
  9 Na    0.00000    0.00000    0.00262
 10 Na    0.00000    0.00000   -0.00122
 11 Na    0.00000    0.00000    0.00288
 12 Na   -0.00000    0.00000   -0.00174
 13 Na    0.00000    0.00000    0.00979
 14 Na    0.00000    0.00000    0.00388
 15 Na    0.00000    0.00000   -0.00491

System changes: positions 

Initializing position-dependent things.

Density initialized from wave functions
                     
                     
                     
                     
            Na       
                     
                     
                     
                     
       Na            
                     
            Na       
                     
                     
                     
                     
       Na            
                     
            Na       
                     
                     
                     
                     
       Na            
                     
            Na       
                     
                     
                     
                     
       Na            
                     
                     
            Na       
                     
                     
                     
                     
       Na            
                     
            Na       
                     
                     
                     
                     
       Na            
                     
            Na       
                     
                     
                     
                     
       Na            
                     
            Na       
                     
                     
                     
                     
       Na            
                     
                     
                     
                     

Positions:
   0 Na    -0.000000   -0.000000   15.026976    ( 0.0000,  0.0000,  0.0000)
   1 Na     1.210473    1.711867   17.928157    ( 0.0000,  0.0000,  0.0000)
   2 Na     0.000000    0.000000   20.934734    ( 0.0000,  0.0000,  0.0000)
   3 Na     1.210473    1.711867   23.889111    ( 0.0000,  0.0000,  0.0000)
   4 Na     0.000000   -0.000000   26.871095    ( 0.0000,  0.0000,  0.0000)
   5 Na     1.210473    1.711867   29.809674    ( 0.0000,  0.0000,  0.0000)
   6 Na     0.000000    0.000000   32.803943    ( 0.0000,  0.0000,  0.0000)
   7 Na     1.210473    1.711867   35.747172    ( 0.0000,  0.0000,  0.0000)
   8 Na    -0.000000   -0.000000   38.728096    ( 0.0000,  0.0000,  0.0000)
   9 Na     1.210473    1.711867   41.670101    ( 0.0000,  0.0000,  0.0000)
  10 Na     0.000000   -0.000000   44.664830    ( 0.0000,  0.0000,  0.0000)
  11 Na     1.210473    1.711867   47.605603    ( 0.0000,  0.0000,  0.0000)
  12 Na     0.000000    0.000000   50.586357    ( 0.0000,  0.0000,  0.0000)
  13 Na     1.210473    1.711867   53.541285    ( 0.0000,  0.0000,  0.0000)
  14 Na    -0.000000    0.000000   56.548154    ( 0.0000,  0.0000,  0.0000)
  15 Na     1.210473    1.711867   59.448422    ( 0.0000,  0.0000,  0.0000)

Unit cell:
           periodic     x           y           z      points  spacing
  1. axis:    yes    3.631418    0.000000    0.000000    20     0.1712
  2. axis:    yes   -1.210473    3.423733    0.000000    20     0.1712
  3. axis:    no     0.000000   -0.000000   74.475602   392     0.1900

  Lengths:   3.631418   3.631418  74.475602
  Angles:   90.000000  90.000000 109.471221

Effective grid spacing dv^(1/3) = 0.1808

     iter     time        total  log10-change:
                         energy   eigst   dens
iter:   1 19:02:18   -21.004146   -4.86
iter:   2 19:02:21   -30.534488   -3.30  -2.03
iter:   3 19:02:23   -21.051032   -3.36  -1.04
iter:   4 19:02:26   -20.904203   -4.64  -1.96
iter:   5 19:02:28   -20.901635   -5.44  -2.86
iter:   6 19:02:31   -20.901290c  -6.02  -3.31
iter:   7 19:02:33   -20.901235c  -6.51  -3.57
iter:   8 19:02:36   -20.901226c  -6.81  -3.82
iter:   9 19:02:38   -20.901454c  -7.17  -3.96
iter:  10 19:02:41   -20.901224c  -7.56c -3.32
iter:  11 19:02:43   -20.901220c  -7.93c -3.96
iter:  12 19:02:46   -20.901228c  -8.13c -4.12c

Converged after 12 iterations.

Dipole moment: (-0.000000, -0.000000, -0.000378) |e|*Ang

Energy contributions relative to reference atoms: (reference = -70697.767962)

Kinetic:        +22.330129
Potential:      -19.394756
External:        +0.000000
XC:             -23.324046
Entropy (-ST):   -0.002666
Local:           -0.511222
SIC:             +0.000000
--------------------------
Free energy:    -20.902562
Extrapolated:   -20.901228

Showing only first 2 kpts
 Kpt  Band  Eigenvalues  Occupancy
  0    54     -3.28283    2.00000
  0    55     -3.05816    2.00000
  0    56     -2.78771    2.00000
  0    57     -2.49673    2.00000

  1    54     -3.21473    2.00000
  1    55     -2.99034    2.00000
  1    56     -2.72025    2.00000
  1    57     -2.42962    2.00000


Fermi level: -0.78508

No gap

Forces in eV/Ang:
  0 Na   -0.00000   -0.00000    0.00541
  1 Na    0.00000    0.00000   -0.00300
  2 Na    0.00000    0.00000   -0.01018
  3 Na    0.00000    0.00000    0.00406
  4 Na    0.00000    0.00000   -0.00587
  5 Na    0.00000    0.00000    0.00679
  6 Na    0.00000    0.00000   -0.00007
  7 Na    0.00000    0.00000    0.00263
  8 Na    0.00000    0.00000   -0.00404
  9 Na    0.00000    0.00000    0.00417
 10 Na    0.00000    0.00000   -0.00431
 11 Na    0.00000    0.00000    0.00246
 12 Na    0.00000   -0.00000   -0.00195
 13 Na    0.00000   -0.00000    0.00889
 14 Na   -0.00000    0.00000    0.00232
 15 Na   -0.00000    0.00000   -0.00574

System changes: positions 

Initializing position-dependent things.

Density initialized from wave functions
                     
                     
                     
                     
            Na       
                     
                     
                     
                     
       Na            
                     
            Na       
                     
                     
                     
                     
       Na            
                     
            Na       
                     
                     
                     
                     
       Na            
                     
                     
            Na       
                     
                     
                     
       Na            
                     
                     
            Na       
                     
                     
                     
                     
       Na            
                     
            Na       
                     
                     
                     
                     
       Na            
                     
            Na       
                     
                     
                     
                     
       Na            
                     
            Na       
                     
                     
                     
                     
       Na            
                     
                     
                     
                     

Positions:
   0 Na    -0.000000   -0.000000   15.028122    ( 0.0000,  0.0000,  0.0000)
   1 Na     1.210473    1.711867   17.926712    ( 0.0000,  0.0000,  0.0000)
   2 Na     0.000000    0.000000   20.934571    ( 0.0000,  0.0000,  0.0000)
   3 Na     1.210473    1.711867   23.889018    ( 0.0000,  0.0000,  0.0000)
   4 Na     0.000000   -0.000000   26.871300    ( 0.0000,  0.0000,  0.0000)
   5 Na     1.210473    1.711867   29.809315    ( 0.0000,  0.0000,  0.0000)
   6 Na     0.000000    0.000000   32.804446    ( 0.0000,  0.0000,  0.0000)
   7 Na     1.210473    1.711867   35.746969    ( 0.0000,  0.0000,  0.0000)
   8 Na    -0.000000   -0.000000   38.728261    ( 0.0000,  0.0000,  0.0000)
   9 Na     1.210473    1.711867   41.669685    ( 0.0000,  0.0000,  0.0000)
  10 Na     0.000000   -0.000000   44.665244    ( 0.0000,  0.0000,  0.0000)
  11 Na     1.210473    1.711867   47.605334    ( 0.0000,  0.0000,  0.0000)
  12 Na     0.000000    0.000000   50.586501    ( 0.0000,  0.0000,  0.0000)
  13 Na     1.210473    1.711867   53.541415    ( 0.0000,  0.0000,  0.0000)
  14 Na    -0.000000    0.000000   56.549588    ( 0.0000,  0.0000,  0.0000)
  15 Na     1.210473    1.711867   59.447273    ( 0.0000,  0.0000,  0.0000)

Unit cell:
           periodic     x           y           z      points  spacing
  1. axis:    yes    3.631418    0.000000    0.000000    20     0.1712
  2. axis:    yes   -1.210473    3.423733    0.000000    20     0.1712
  3. axis:    no     0.000000   -0.000000   74.475602   392     0.1900

  Lengths:   3.631418   3.631418  74.475602
  Angles:   90.000000  90.000000 109.471221

Effective grid spacing dv^(1/3) = 0.1808

     iter     time        total  log10-change:
                         energy   eigst   dens
iter:   1 19:02:51   -21.379790   -4.63
iter:   2 19:02:54   -68.217464   -0.60  -1.68
iter:   3 19:02:56   -21.192019   -1.06  -0.77
iter:   4 19:02:59   -21.027635   -2.34  -1.83
iter:   5 19:03:01   -20.906149   -3.13  -2.00
iter:   6 19:03:04   -20.904054   -3.89  -2.67
iter:   7 19:03:06   -20.901471c  -4.56  -2.83
iter:   8 19:03:09   -20.901307c  -5.19  -3.36
iter:   9 19:03:11   -20.901536c  -5.76  -3.58
iter:  10 19:03:14   -20.901316c  -6.33  -3.29
iter:  11 19:03:16   -20.901342c  -6.79  -3.56
iter:  12 19:03:19   -20.901257c  -7.09  -3.52
iter:  13 19:03:21   -20.901255c  -7.41c -3.76
iter:  14 19:03:24   -20.901246c  -7.64c -3.81
iter:  15 19:03:27   -20.901555c  -7.28  -3.82
iter:  16 19:03:29   -20.901231c  -7.85c -3.29
iter:  17 19:03:32   -20.901252c  -8.54c -3.98
iter:  18 19:03:34   -20.901224c  -8.51c -3.77
iter:  19 19:03:37   -20.901223c  -8.78c -4.19c

Converged after 19 iterations.

Dipole moment: (-0.000000, -0.000000, 0.001430) |e|*Ang

Energy contributions relative to reference atoms: (reference = -70697.767962)

Kinetic:        +22.335796
Potential:      -19.399409
External:        +0.000000
XC:             -23.326047
Entropy (-ST):   -0.002663
Local:           -0.510231
SIC:             +0.000000
--------------------------
Free energy:    -20.902554
Extrapolated:   -20.901223

Showing only first 2 kpts
 Kpt  Band  Eigenvalues  Occupancy
  0    54     -3.28458    2.00000
  0    55     -3.06012    2.00000
  0    56     -2.78918    2.00000
  0    57     -2.49816    2.00000

  1    54     -3.21648    2.00000
  1    55     -2.99229    2.00000
  1    56     -2.72172    2.00000
  1    57     -2.43105    2.00000


Fermi level: -0.78654

No gap

Forces in eV/Ang:
  0 Na    0.00000    0.00000    0.00862
  1 Na    0.00000    0.00000   -0.00444
  2 Na    0.00000    0.00000   -0.01065
  3 Na    0.00000    0.00000    0.00326
  4 Na    0.00000    0.00000   -0.00514
  5 Na   -0.00000    0.00000    0.00553
  6 Na   -0.00000   -0.00000   -0.00187
  7 Na    0.00000    0.00000    0.00320
  8 Na    0.00000    0.00000   -0.00487
  9 Na    0.00000    0.00000    0.00333
 10 Na    0.00000    0.00000   -0.00429
 11 Na    0.00000    0.00000    0.00418
 12 Na    0.00000   -0.00000   -0.00317
 13 Na    0.00000    0.00000    0.01195
 14 Na   -0.00000    0.00000    0.00114
 15 Na    0.00000    0.00000   -0.00421

System changes: positions 

Initializing position-dependent things.

Density initialized from wave functions
                     
                     
                     
                     
            Na       
                     
                     
                     
                     
       Na            
                     
            Na       
                     
                     
                     
                     
       Na            
                     
            Na       
                     
                     
                     
                     
       Na            
                     
                     
            Na       
                     
                     
                     
       Na            
                     
                     
            Na       
                     
                     
                     
                     
       Na            
                     
            Na       
                     
                     
                     
                     
       Na            
                     
            Na       
                     
                     
                     
                     
       Na            
                     
            Na       
                     
                     
                     
                     
       Na            
                     
                     
                     
                     

Positions:
   0 Na    -0.000000   -0.000000   15.036160    ( 0.0000,  0.0000,  0.0000)
   1 Na     1.210473    1.711867   17.917282    ( 0.0000,  0.0000,  0.0000)
   2 Na     0.000000    0.000000   20.932623    ( 0.0000,  0.0000,  0.0000)
   3 Na     1.210473    1.711867   23.888615    ( 0.0000,  0.0000,  0.0000)
   4 Na     0.000000   -0.000000   26.872203    ( 0.0000,  0.0000,  0.0000)
   5 Na     1.210473    1.711867   29.807391    ( 0.0000,  0.0000,  0.0000)
   6 Na     0.000000    0.000000   32.807240    ( 0.0000,  0.0000,  0.0000)
   7 Na     1.210473    1.711867   35.746039    ( 0.0000,  0.0000,  0.0000)
   8 Na    -0.000000   -0.000000   38.728831    ( 0.0000,  0.0000,  0.0000)
   9 Na     1.210473    1.711867   41.667316    ( 0.0000,  0.0000,  0.0000)
  10 Na     0.000000   -0.000000   44.667520    ( 0.0000,  0.0000,  0.0000)
  11 Na     1.210473    1.711867   47.604190    ( 0.0000,  0.0000,  0.0000)
  12 Na     0.000000    0.000000   50.587007    ( 0.0000,  0.0000,  0.0000)
  13 Na     1.210473    1.711867   53.543479    ( 0.0000,  0.0000,  0.0000)
  14 Na     0.000000    0.000000   56.558412    ( 0.0000,  0.0000,  0.0000)
  15 Na     1.210473    1.711867   59.440028    ( 0.0000,  0.0000,  0.0000)

Unit cell:
           periodic     x           y           z      points  spacing
  1. axis:    yes    3.631418    0.000000    0.000000    20     0.1712
  2. axis:    yes   -1.210473    3.423733    0.000000    20     0.1712
  3. axis:    no     0.000000   -0.000000   74.475602   392     0.1900

  Lengths:   3.631418   3.631418  74.475602
  Angles:   90.000000  90.000000 109.471221

Effective grid spacing dv^(1/3) = 0.1808

     iter     time        total  log10-change:
                         energy   eigst   dens
iter:   1 19:03:42   -21.332095   -3.76
iter:   2 19:03:44   -39.088914   -1.25  -1.71
iter:   3 19:03:47   -25.722084   -1.65  -0.91
iter:   4 19:03:49   -20.973233   -3.32  -1.16
iter:   5 19:03:52   -20.950180   -4.26  -2.20
iter:   6 19:03:55   -20.903808   -5.14  -2.20
iter:   7 19:03:57   -20.901419c  -5.76  -2.90
iter:   8 19:04:00   -20.901887c  -6.29  -3.29
iter:   9 19:04:02   -20.901447c  -6.73  -3.06
iter:  10 19:04:05   -20.904284c  -6.58  -3.24
iter:  11 19:04:07   -20.901158c  -6.48  -2.77
iter:  12 19:04:10   -20.901160c  -7.19  -3.69
iter:  13 19:04:12   -20.901155c  -7.30  -3.68
iter:  14 19:04:15   -20.901149c  -7.56c -3.72
iter:  15 19:04:17   -20.901149c  -7.64c -3.81
iter:  16 19:04:20   -20.901153c  -7.63c -3.84
iter:  17 19:04:22   -20.901158c  -8.17c -3.79
iter:  18 19:04:25   -20.901136c  -8.00c -3.77
iter:  19 19:04:27   -20.901134c  -8.18c -4.25c

Converged after 19 iterations.

Dipole moment: (-0.000000, -0.000000, 0.000551) |e|*Ang

Energy contributions relative to reference atoms: (reference = -70697.767962)

Kinetic:        +22.402047
Potential:      -19.449940
External:        +0.000000
XC:             -23.340690
Entropy (-ST):   -0.002624
Local:           -0.511239
SIC:             +0.000000
--------------------------
Free energy:    -20.902446
Extrapolated:   -20.901134

Showing only first 2 kpts
 Kpt  Band  Eigenvalues  Occupancy
  0    54     -3.28547    2.00000
  0    55     -3.06129    2.00000
  0    56     -2.78737    2.00000
  0    57     -2.49647    2.00000

  1    54     -3.21737    2.00000
  1    55     -2.99346    2.00000
  1    56     -2.71991    2.00000
  1    57     -2.42936    2.00000


Fermi level: -0.78476

No gap

Forces in eV/Ang:
  0 Na    0.00000    0.00000   -0.00159
  1 Na    0.00000   -0.00000    0.00925
  2 Na    0.00000    0.00000   -0.01428
  3 Na    0.00000    0.00000    0.00347
  4 Na    0.00000    0.00000   -0.00607
  5 Na    0.00000    0.00000    0.00617
  6 Na    0.00000    0.00000   -0.00504
  7 Na    0.00000    0.00000    0.00627
  8 Na    0.00000    0.00000   -0.00681
  9 Na    0.00000    0.00000    0.00607
 10 Na    0.00000    0.00000   -0.00756
 11 Na    0.00000    0.00000    0.00667
 12 Na    0.00000    0.00000   -0.00260
 13 Na   -0.00000   -0.00000    0.01344
 14 Na    0.00000    0.00000   -0.00993
 15 Na    0.00000    0.00000    0.00564

System changes: positions 

Initializing position-dependent things.

Density initialized from wave functions
                     
                     
                     
                     
            Na       
                     
                     
                     
                     
       Na            
                     
            Na       
                     
                     
                     
                     
       Na            
                     
            Na       
                     
                     
                     
                     
       Na            
                     
                     
            Na       
                     
                     
                     
       Na            
                     
                     
            Na       
                     
                     
                     
                     
       Na            
                     
            Na       
                     
                     
                     
                     
       Na            
                     
            Na       
                     
                     
                     
                     
       Na            
                     
            Na       
                     
                     
                     
                     
       Na            
                     
                     
                     
                     

Positions:
   0 Na    -0.000000   -0.000000   15.031315    ( 0.0000,  0.0000,  0.0000)
   1 Na     1.210473    1.711867   17.923177    ( 0.0000,  0.0000,  0.0000)
   2 Na     0.000000    0.000000   20.933351    ( 0.0000,  0.0000,  0.0000)
   3 Na     1.210473    1.711867   23.889027    ( 0.0000,  0.0000,  0.0000)
   4 Na     0.000000   -0.000000   26.871367    ( 0.0000,  0.0000,  0.0000)
   5 Na     1.210473    1.711867   29.808876    ( 0.0000,  0.0000,  0.0000)
   6 Na     0.000000    0.000000   32.805387    ( 0.0000,  0.0000,  0.0000)
   7 Na     1.210473    1.711867   35.746798    ( 0.0000,  0.0000,  0.0000)
   8 Na    -0.000000   -0.000000   38.728260    ( 0.0000,  0.0000,  0.0000)
   9 Na     1.210473    1.711867   41.669015    ( 0.0000,  0.0000,  0.0000)
  10 Na     0.000000   -0.000000   44.665891    ( 0.0000,  0.0000,  0.0000)
  11 Na     1.210473    1.711867   47.605116    ( 0.0000,  0.0000,  0.0000)
  12 Na     0.000000    0.000000   50.586548    ( 0.0000,  0.0000,  0.0000)
  13 Na     1.210473    1.711867   53.542678    ( 0.0000,  0.0000,  0.0000)
  14 Na     0.000000    0.000000   56.552781    ( 0.0000,  0.0000,  0.0000)
  15 Na     1.210473    1.711867   59.444521    ( 0.0000,  0.0000,  0.0000)

Unit cell:
           periodic     x           y           z      points  spacing
  1. axis:    yes    3.631418    0.000000    0.000000    20     0.1712
  2. axis:    yes   -1.210473    3.423733    0.000000    20     0.1712
  3. axis:    no     0.000000   -0.000000   74.475602   392     0.1900

  Lengths:   3.631418   3.631418  74.475602
  Angles:   90.000000  90.000000 109.471221

Effective grid spacing dv^(1/3) = 0.1808

     iter     time        total  log10-change:
                         energy   eigst   dens
iter:   1 19:04:33   -21.029827   -4.13
iter:   2 19:04:35   -24.261289   -3.48  -1.99
iter:   3 19:04:38   -20.996005   -3.90  -1.25
iter:   4 19:04:40   -21.125568   -4.68  -2.07
iter:   5 19:04:43   -20.902308   -5.34  -1.85
iter:   6 19:04:45   -20.902097   -5.97  -3.01
iter:   7 19:04:48   -20.902205c  -6.25  -3.07
iter:   8 19:04:50   -20.909889c  -6.11  -3.11
iter:   9 19:04:53   -20.901583c  -6.21  -2.56
iter:  10 19:04:56   -20.921131c  -6.20  -3.28
iter:  11 19:05:00   -20.901320c  -6.30  -2.36
iter:  12 19:05:03   -20.901285c  -7.10  -3.64
iter:  13 19:05:07   -20.901274c  -7.48c -3.77
iter:  14 19:05:11   -20.901259c  -7.41c -3.81
iter:  15 19:05:15   -20.901254c  -7.59c -3.98
iter:  16 19:05:19   -20.901378c  -7.77c -4.10c

Converged after 16 iterations.

Dipole moment: (-0.000000, -0.000000, 0.002135) |e|*Ang

Energy contributions relative to reference atoms: (reference = -70697.767962)

Kinetic:        +22.346754
Potential:      -19.408343
External:        +0.000000
XC:             -23.331101
Entropy (-ST):   -0.002640
Local:           -0.507368
SIC:             +0.000000
--------------------------
Free energy:    -20.902698
Extrapolated:   -20.901378

Showing only first 2 kpts
 Kpt  Band  Eigenvalues  Occupancy
  0    54     -3.28520    2.00000
  0    55     -3.06077    2.00000
  0    56     -2.78894    2.00000
  0    57     -2.49789    2.00000

  1    54     -3.21710    2.00000
  1    55     -2.99295    2.00000
  1    56     -2.72149    2.00000
  1    57     -2.43078    2.00000


Fermi level: -0.78619

No gap

Forces in eV/Ang:
  0 Na   -0.00000    0.00000    0.00174
  1 Na   -0.00000    0.00000    0.00070
  2 Na    0.00000    0.00000   -0.01204
  3 Na    0.00000    0.00000    0.00278
  4 Na    0.00000   -0.00000   -0.00641
  5 Na    0.00000    0.00000    0.00351
  6 Na    0.00000    0.00000   -0.00773
  7 Na   -0.00000   -0.00000    0.00423
  8 Na    0.00000    0.00000   -0.00656
  9 Na    0.00000    0.00000    0.00166
 10 Na    0.00000    0.00000   -0.00732
 11 Na    0.00000    0.00000    0.00685
 12 Na    0.00000   -0.00000   -0.00426
 13 Na    0.00000    0.00000    0.01596
 14 Na    0.00000    0.00000    0.00006
 15 Na    0.00000   -0.00000   -0.00155

System changes: positions 

Initializing position-dependent things.

Density initialized from wave functions
                     
                     
                     
                     
            Na       
                     
                     
                     
                     
       Na            
                     
            Na       
                     
                     
                     
                     
       Na            
                     
            Na       
                     
                     
                     
                     
       Na            
                     
                     
            Na       
                     
                     
                     
       Na            
                     
                     
            Na       
                     
                     
                     
                     
       Na            
                     
            Na       
                     
                     
                     
                     
       Na            
                     
            Na       
                     
                     
                     
                     
       Na            
                     
            Na       
                     
                     
                     
                     
       Na            
                     
                     
                     
                     

Positions:
   0 Na    -0.000000   -0.000000   15.030837    ( 0.0000,  0.0000,  0.0000)
   1 Na     1.210473    1.711867   17.923971    ( 0.0000,  0.0000,  0.0000)
   2 Na     0.000000    0.000000   20.932855    ( 0.0000,  0.0000,  0.0000)
   3 Na     1.210473    1.711867   23.889263    ( 0.0000,  0.0000,  0.0000)
   4 Na     0.000000   -0.000000   26.870915    ( 0.0000,  0.0000,  0.0000)
   5 Na     1.210473    1.711867   29.809376    ( 0.0000,  0.0000,  0.0000)
   6 Na     0.000000    0.000000   32.804924    ( 0.0000,  0.0000,  0.0000)
   7 Na     1.210473    1.711867   35.747113    ( 0.0000,  0.0000,  0.0000)
   8 Na    -0.000000   -0.000000   38.727903    ( 0.0000,  0.0000,  0.0000)
   9 Na     1.210473    1.711867   41.669458    ( 0.0000,  0.0000,  0.0000)
  10 Na     0.000000   -0.000000   44.665392    ( 0.0000,  0.0000,  0.0000)
  11 Na     1.210473    1.711867   47.605527    ( 0.0000,  0.0000,  0.0000)
  12 Na     0.000000    0.000000   50.586291    ( 0.0000,  0.0000,  0.0000)
  13 Na     1.210473    1.711867   53.543230    ( 0.0000,  0.0000,  0.0000)
  14 Na     0.000000    0.000000   56.551932    ( 0.0000,  0.0000,  0.0000)
  15 Na     1.210473    1.711867   59.445068    ( 0.0000,  0.0000,  0.0000)

Unit cell:
           periodic     x           y           z      points  spacing
  1. axis:    yes    3.631418    0.000000    0.000000    20     0.1712
  2. axis:    yes   -1.210473    3.423733    0.000000    20     0.1712
  3. axis:    no     0.000000   -0.000000   74.475602   392     0.1900

  Lengths:   3.631418   3.631418  74.475602
  Angles:   90.000000  90.000000 109.471221

Effective grid spacing dv^(1/3) = 0.1808

     iter     time        total  log10-change:
                         energy   eigst   dens
iter:   1 19:05:26   -28.332216   -3.43
iter:   2 19:05:30  -479.534276   +1.15  -1.06
iter:   3 19:05:34     3.113888   +1.48  -0.37
iter:   4 19:05:38   -39.448922   +1.05  -1.01
iter:   5 19:05:42   -39.655617   -0.00  -0.88
iter:   6 19:05:46   -40.491066   -0.71  -0.88
iter:   7 19:05:50   -35.865210   -1.32  -0.89
iter:   8 19:05:55  -115.556682   -0.03  -0.93
iter:   9 19:05:58   -82.282440   -0.15  -0.73
iter:  10 19:06:03   -37.258653   -1.39  -0.81
iter:  11 19:06:07   -29.818497   -2.14  -1.02
iter:  12 19:06:11   -24.804201   -2.14  -1.10
iter:  13 19:06:15   -36.338251   +0.35  -1.23
iter:  14 19:06:20   -21.176143   -2.45  -0.96
iter:  15 19:06:23   -21.115821   -3.22  -1.87
iter:  16 19:06:27   -20.990264   -3.51  -1.96
iter:  17 19:06:31   -21.073521   -4.11  -2.29
iter:  18 19:06:35   -21.012371   -4.29  -1.94
iter:  19 19:06:39   -21.255380   -4.83  -2.05
iter:  20 19:06:42   -21.176815   -4.79  -1.73
iter:  21 19:06:44   -21.284965   -5.24  -1.81
iter:  22 19:06:47   -21.180034   -5.11  -1.70
iter:  23 19:06:49   -21.200827   -4.54  -1.80
iter:  24 19:06:52   -21.186978c  -5.34  -1.75
iter:  25 19:06:55   -21.171987c  -5.11  -1.79
iter:  26 19:06:57   -21.104904   -4.99  -1.79
iter:  27 19:07:00   -21.132480   -5.16  -1.89
iter:  28 19:07:02   -20.958562   -3.92  -1.86
iter:  29 19:07:05   -20.929136   -5.15  -2.21
iter:  30 19:07:07   -20.917971c  -5.34  -2.33
iter:  31 19:07:10   -20.907111c  -5.16  -2.40
iter:  32 19:07:12   -20.925632c  -5.05  -2.66
iter:  33 19:07:15   -20.922140c  -5.54  -2.32
iter:  34 19:07:17   -20.908332c  -5.68  -2.38
iter:  35 19:07:20   -20.905520c  -5.60  -2.61
iter:  36 19:07:23   -20.905193c  -5.85  -2.72
iter:  37 19:07:25   -20.903498c  -5.93  -2.71
iter:  38 19:07:28   -20.901490c  -5.59  -2.83
iter:  39 19:07:30   -20.901326c  -6.26  -3.21
iter:  40 19:07:33   -20.901491c  -6.98  -3.44
iter:  41 19:07:35   -20.902310c  -6.37  -3.25
iter:  42 19:07:38   -20.901367c  -6.43  -2.99
iter:  43 19:07:40   -20.901707c  -7.22  -3.47
iter:  44 19:07:43   -20.901339c  -6.83  -3.17
iter:  45 19:07:45   -20.901312c  -6.78  -3.54
iter:  46 19:07:48   -20.901300c  -7.38  -3.61
iter:  47 19:07:50   -20.901325c  -7.95c -3.73
iter:  48 19:07:53   -20.901356c  -7.18  -3.60
iter:  49 19:07:55   -20.901417c  -7.45c -3.54
iter:  50 19:07:58   -20.901315c  -8.13c -3.45
iter:  51 19:08:01   -20.901332c  -7.66c -3.70
iter:  52 19:08:03   -20.901287c  -7.56c -3.64
iter:  53 19:08:06   -20.901290c  -7.54c -4.00
iter:  54 19:08:08   -20.901283c  -8.51c -3.95
iter:  55 19:08:11   -20.901284c  -8.19c -4.12c

Converged after 55 iterations.

Dipole moment: (-0.000000, -0.000000, 0.000340) |e|*Ang

Energy contributions relative to reference atoms: (reference = -70697.767962)

Kinetic:        +22.430607
Potential:      -19.482387
External:        +0.000000
XC:             -23.338430
Entropy (-ST):   -0.002648
Local:           -0.509750
SIC:             +0.000000
--------------------------
Free energy:    -20.902608
Extrapolated:   -20.901284

Showing only first 2 kpts
 Kpt  Band  Eigenvalues  Occupancy
  0    54     -3.28429    2.00000
  0    55     -3.05958    2.00000
  0    56     -2.78871    2.00000
  0    57     -2.49743    2.00000

  1    54     -3.21619    2.00000
  1    55     -2.99176    2.00000
  1    56     -2.72125    2.00000
  1    57     -2.43032    2.00000


Fermi level: -0.78563

No gap

Forces in eV/Ang:
  0 Na    0.00000    0.00000    0.00282
  1 Na    0.00000   -0.00000    0.00062
  2 Na   -0.00000    0.00000   -0.01080
  3 Na    0.00000    0.00000    0.00095
  4 Na    0.00000    0.00000   -0.00401
  5 Na   -0.00000    0.00000    0.00377
  6 Na   -0.00000   -0.00000   -0.00168
  7 Na    0.00000    0.00000    0.00411
  8 Na   -0.00000    0.00000   -0.00415
  9 Na    0.00000   -0.00000    0.00344
 10 Na    0.00000   -0.00000   -0.00315
 11 Na    0.00000    0.00000    0.00424
 12 Na    0.00000   -0.00000   -0.00119
 13 Na   -0.00000    0.00000    0.01066
 14 Na    0.00000    0.00000   -0.00150
 15 Na    0.00000    0.00000   -0.00156

System changes: positions 

Initializing position-dependent things.

Density initialized from wave functions
                     
                     
                     
                     
            Na       
                     
                     
                     
                     
       Na            
                     
            Na       
                     
                     
                     
                     
       Na            
                     
            Na       
                     
                     
                     
                     
       Na            
                     
            Na       
                     
                     
                     
                     
       Na            
                     
                     
            Na       
                     
                     
                     
                     
       Na            
                     
            Na       
                     
                     
                     
                     
       Na            
                     
            Na       
                     
                     
                     
                     
       Na            
                     
            Na       
                     
                     
                     
                     
       Na            
                     
                     
                     
                     

Positions:
   0 Na    -0.000000   -0.000000   15.030512    ( 0.0000,  0.0000,  0.0000)
   1 Na     1.210473    1.711867   17.925007    ( 0.0000,  0.0000,  0.0000)
   2 Na     0.000000    0.000000   20.931320    ( 0.0000,  0.0000,  0.0000)
   3 Na     1.210473    1.711867   23.889773    ( 0.0000,  0.0000,  0.0000)
   4 Na     0.000000   -0.000000   26.869899    ( 0.0000,  0.0000,  0.0000)
   5 Na     1.210473    1.711867   29.810496    ( 0.0000,  0.0000,  0.0000)
   6 Na     0.000000    0.000000   32.804252    ( 0.0000,  0.0000,  0.0000)
   7 Na     1.210473    1.711867   35.747854    ( 0.0000,  0.0000,  0.0000)
   8 Na    -0.000000   -0.000000   38.727107    ( 0.0000,  0.0000,  0.0000)
   9 Na     1.210473    1.711867   41.670439    ( 0.0000,  0.0000,  0.0000)
  10 Na     0.000000   -0.000000   44.664478    ( 0.0000,  0.0000,  0.0000)
  11 Na     1.210473    1.711867   47.606396    ( 0.0000,  0.0000,  0.0000)
  12 Na     0.000000    0.000000   50.585794    ( 0.0000,  0.0000,  0.0000)
  13 Na     1.210473    1.711867   53.544752    ( 0.0000,  0.0000,  0.0000)
  14 Na     0.000000    0.000000   56.550642    ( 0.0000,  0.0000,  0.0000)
  15 Na     1.210473    1.711867   59.445673    ( 0.0000,  0.0000,  0.0000)

Unit cell:
           periodic     x           y           z      points  spacing
  1. axis:    yes    3.631418    0.000000    0.000000    20     0.1712
  2. axis:    yes   -1.210473    3.423733    0.000000    20     0.1712
  3. axis:    no     0.000000   -0.000000   74.475602   392     0.1900

  Lengths:   3.631418   3.631418  74.475602
  Angles:   90.000000  90.000000 109.471221

Effective grid spacing dv^(1/3) = 0.1808

     iter     time        total  log10-change:
                         energy   eigst   dens
iter:   1 19:08:16   -21.064358   -4.87
iter:   2 19:08:18   -36.176005   -2.71  -1.93
iter:   3 19:08:21   -21.260295   -2.43  -0.96
iter:   4 19:08:24   -20.904580   -4.26  -1.73
iter:   5 19:08:26   -20.902368   -4.96  -2.85
iter:   6 19:08:29   -20.901543c  -5.64  -3.07
iter:   7 19:08:31   -20.901414c  -6.13  -3.36
iter:   8 19:08:34   -20.901416c  -6.51  -3.55
iter:   9 19:08:36   -20.901375c  -6.77  -3.61
iter:  10 19:08:39   -20.901347c  -7.12  -3.75
iter:  11 19:08:41   -20.901352c  -7.44c -4.07c

Converged after 11 iterations.

Dipole moment: (-0.000000, -0.000000, -0.000346) |e|*Ang

Energy contributions relative to reference atoms: (reference = -70697.767962)

Kinetic:        +22.334560
Potential:      -19.397151
External:        +0.000000
XC:             -23.328018
Entropy (-ST):   -0.002644
Local:           -0.509421
SIC:             +0.000000
--------------------------
Free energy:    -20.902674
Extrapolated:   -20.901352

Showing only first 2 kpts
 Kpt  Band  Eigenvalues  Occupancy
  0    54     -3.28372    2.00000
  0    55     -3.05851    2.00000
  0    56     -2.78868    2.00000
  0    57     -2.49729    2.00000

  1    54     -3.21563    2.00000
  1    55     -2.99069    2.00000
  1    56     -2.72121    2.00000
  1    57     -2.43018    2.00000


Fermi level: -0.78522

No gap

Forces in eV/Ang:
  0 Na    0.00000   -0.00000    0.00060
  1 Na    0.00000   -0.00000    0.00038
  2 Na    0.00000    0.00000   -0.01027
  3 Na    0.00000    0.00000    0.00358
  4 Na    0.00000    0.00000   -0.00685
  5 Na    0.00000    0.00000    0.00613
  6 Na    0.00000    0.00000   -0.00040
  7 Na    0.00000   -0.00000    0.00348
  8 Na    0.00000   -0.00000   -0.00378
  9 Na    0.00000   -0.00000    0.00418
 10 Na    0.00000   -0.00000   -0.00392
 11 Na   -0.00000   -0.00000    0.00445
 12 Na    0.00000    0.00000   -0.00220
 13 Na    0.00000    0.00000    0.00811
 14 Na    0.00000    0.00000    0.00065
 15 Na    0.00000   -0.00000   -0.00271

System changes: positions 

Initializing position-dependent things.

Density initialized from wave functions
                     
                     
                     
                     
            Na       
                     
                     
                     
                     
       Na            
                     
            Na       
                     
                     
                     
                     
       Na            
                     
            Na       
                     
                     
                     
                     
                     
       Na            
                     
            Na       
                     
                     
                     
                     
       Na            
                     
            Na       
                     
                     
                     
                     
       Na            
                     
            Na       
                     
                     
                     
                     
                     
       Na            
                     
            Na       
                     
                     
                     
                     
       Na            
                     
            Na       
                     
                     
                     
                     
       Na            
                     
                     
                     
                     

Positions:
   0 Na    -0.000000    0.000000   14.984842    ( 0.0000,  0.0000,  0.0000)
   1 Na     1.210473    1.711867   18.062300    ( 0.0000,  0.0000,  0.0000)
   2 Na     0.000000    0.000000   20.731320    ( 0.0000,  0.0000,  0.0000)
   3 Na     1.210473    1.711867   23.958175    ( 0.0000,  0.0000,  0.0000)
   4 Na     0.000000    0.000000   26.735094    ( 0.0000,  0.0000,  0.0000)
   5 Na     1.210473    1.711867   29.958966    ( 0.0000,  0.0000,  0.0000)
   6 Na     0.000000    0.000000   32.716998    ( 0.0000,  0.0000,  0.0000)
   7 Na     1.210473    1.711867   35.844547    ( 0.0000,  0.0000,  0.0000)
   8 Na     0.000000    0.000000   38.623278    ( 0.0000,  0.0000,  0.0000)
   9 Na     1.210473    1.711867   41.799851    ( 0.0000,  0.0000,  0.0000)
  10 Na     0.000000   -0.000000   44.544128    ( 0.0000,  0.0000,  0.0000)
  11 Na     1.210473    1.711867   47.720043    ( 0.0000,  0.0000,  0.0000)
  12 Na     0.000000    0.000000   50.520217    ( 0.0000,  0.0000,  0.0000)
  13 Na     1.210473    1.711867   53.741362    ( 0.0000,  0.0000,  0.0000)
  14 Na     0.000000   -0.000000   56.381596    ( 0.0000,  0.0000,  0.0000)
  15 Na     1.210473    1.711867   59.525310    ( 0.0000,  0.0000,  0.0000)

Unit cell:
           periodic     x           y           z      points  spacing
  1. axis:    yes    3.631418    0.000000    0.000000    20     0.1712
  2. axis:    yes   -1.210473    3.423733    0.000000    20     0.1712
  3. axis:    no     0.000000   -0.000000   74.475602   392     0.1900

  Lengths:   3.631418   3.631418  74.475602
  Angles:   90.000000  90.000000 109.471221

Effective grid spacing dv^(1/3) = 0.1808

     iter     time        total  log10-change:
                         energy   eigst   dens
iter:   1 19:08:47   -25.195823   -1.16
iter:   2 19:08:49   -92.718586   -0.32  -1.23
iter:   3 19:08:52   -34.683981   +0.33  -0.76
iter:   4 19:08:54   -30.457416   -0.22  -0.97
iter:   5 19:08:57   -32.411342   -2.08  -1.02
iter:   6 19:08:59   -21.927504   -3.09  -1.01
iter:   7 19:09:02   -21.535011   -2.87  -1.48
iter:   8 19:09:04   -20.920768   -3.80  -1.56
iter:   9 19:09:07   -21.602225   -3.65  -1.82
iter:  10 19:09:09   -21.865234   -3.85  -1.55
iter:  11 19:09:12   -20.925502   -4.05  -1.50
iter:  12 19:09:14   -20.970959   -4.31  -1.89
iter:  13 19:09:17   -20.939977c  -4.35  -1.86
iter:  14 19:09:19   -20.768533   -4.54  -1.92
iter:  15 19:09:22   -20.804810   -4.67  -2.22
iter:  16 19:09:25   -20.833831   -5.14  -2.09
iter:  17 19:09:27   -20.747665   -4.49  -2.05
iter:  18 19:09:30   -20.749475   -4.70  -2.47
iter:  19 19:09:32   -20.745510c  -5.03  -2.45
iter:  20 19:09:35   -20.742121c  -5.09  -2.53
iter:  21 19:09:37   -20.739493c  -5.72  -2.67
iter:  22 19:09:40   -20.739537c  -5.76  -2.85
iter:  23 19:09:42   -20.738920c  -5.40  -2.85
iter:  24 19:09:45   -20.739066c  -5.70  -3.05
iter:  25 19:09:47   -20.740974c  -5.74  -3.06
iter:  26 19:09:50   -20.739643c  -6.02  -2.74
iter:  27 19:09:52   -20.739438c  -6.04  -2.93
iter:  28 19:09:55   -20.738560c  -6.39  -3.04
iter:  29 19:09:57   -20.738561c  -6.88  -3.61
iter:  30 19:10:00   -20.738530c  -7.34  -3.56
iter:  31 19:10:03   -20.738557c  -7.46c -3.74
iter:  32 19:10:05   -20.738563c  -7.17  -3.58
iter:  33 19:10:08   -20.738646c  -7.35  -3.56
iter:  34 19:10:10   -20.738517c  -7.33  -3.46
iter:  35 19:10:13   -20.738517c  -7.96c -3.94
iter:  36 19:10:15   -20.738515c  -8.10c -4.07c

Converged after 36 iterations.

Dipole moment: (-0.000000, -0.000000, -0.002014) |e|*Ang

Energy contributions relative to reference atoms: (reference = -70697.767962)

Kinetic:        +23.079848
Potential:      -19.899311
External:        +0.000000
XC:             -23.406568
Entropy (-ST):   -0.003674
Local:           -0.510647
SIC:             +0.000000
--------------------------
Free energy:    -20.740352
Extrapolated:   -20.738515

Showing only first 2 kpts
 Kpt  Band  Eigenvalues  Occupancy
  0    54     -3.27249    2.00000
  0    55     -2.97441    2.00000
  0    56     -2.85409    2.00000
  0    57     -2.51464    2.00000

  1    54     -3.20441    2.00000
  1    55     -2.90665    2.00000
  1    56     -2.78640    2.00000
  1    57     -2.44749    2.00000


Fermi level: -0.78532

No gap

Forces in eV/Ang:
  0 Na    0.00000    0.00000    0.05122
  1 Na    0.00000    0.00000   -0.20821
  2 Na    0.00000    0.00000    0.22527
  3 Na    0.00000   -0.00000   -0.15138
  4 Na   -0.00000    0.00000    0.15386
  5 Na    0.00000   -0.00000   -0.17209
  6 Na    0.00000    0.00000    0.14134
  7 Na    0.00000    0.00000   -0.12411
  8 Na    0.00000    0.00000    0.13868
  9 Na    0.00000    0.00000   -0.16399
 10 Na    0.00000    0.00000    0.16697
 11 Na    0.00000   -0.00000   -0.12795
 12 Na    0.00000    0.00000    0.13756
 13 Na    0.00000    0.00000   -0.24052
 14 Na    0.00000    0.00000    0.24312
 15 Na    0.00000    0.00000   -0.06960

System changes: positions 

Initializing position-dependent things.

Density initialized from wave functions
                     
                     
                     
                     
            Na       
                     
                     
                     
                     
       Na            
                     
            Na       
                     
                     
                     
                     
       Na            
                     
            Na       
                     
                     
                     
                     
       Na            
                     
            Na       
                     
                     
                     
                     
       Na            
                     
                     
            Na       
                     
                     
                     
                     
       Na            
                     
            Na       
                     
                     
                     
                     
       Na            
                     
            Na       
                     
                     
                     
                     
       Na            
                     
            Na       
                     
                     
                     
                     
       Na            
                     
                     
                     
                     

Positions:
   0 Na    -0.000000   -0.000000   15.031764    ( 0.0000,  0.0000,  0.0000)
   1 Na     1.210473    1.711867   17.925919    ( 0.0000,  0.0000,  0.0000)
   2 Na    -0.000000    0.000000   20.924786    ( 0.0000,  0.0000,  0.0000)
   3 Na     1.210473    1.711867   23.891664    ( 0.0000,  0.0000,  0.0000)
   4 Na     0.000000   -0.000000   26.866195    ( 0.0000,  0.0000,  0.0000)
   5 Na     1.210473    1.711867   29.814252    ( 0.0000,  0.0000,  0.0000)
   6 Na     0.000000    0.000000   32.802681    ( 0.0000,  0.0000,  0.0000)
   7 Na     1.210473    1.711867   35.750377    ( 0.0000,  0.0000,  0.0000)
   8 Na     0.000000   -0.000000   38.724267    ( 0.0000,  0.0000,  0.0000)
   9 Na     1.210473    1.711867   41.673465    ( 0.0000,  0.0000,  0.0000)
  10 Na     0.000000   -0.000000   44.661702    ( 0.0000,  0.0000,  0.0000)
  11 Na     1.210473    1.711867   47.609349    ( 0.0000,  0.0000,  0.0000)
  12 Na     0.000000    0.000000   50.584064    ( 0.0000,  0.0000,  0.0000)
  13 Na     1.210473    1.711867   53.551143    ( 0.0000,  0.0000,  0.0000)
  14 Na    -0.000000   -0.000000   56.548663    ( 0.0000,  0.0000,  0.0000)
  15 Na     1.210473    1.711867   59.445593    ( 0.0000,  0.0000,  0.0000)

Unit cell:
           periodic     x           y           z      points  spacing
  1. axis:    yes    3.631418    0.000000    0.000000    20     0.1712
  2. axis:    yes   -1.210473    3.423733    0.000000    20     0.1712
  3. axis:    no     0.000000   -0.000000   74.475602   392     0.1900

  Lengths:   3.631418   3.631418  74.475602
  Angles:   90.000000  90.000000 109.471221

Effective grid spacing dv^(1/3) = 0.1808

     iter     time        total  log10-change:
                         energy   eigst   dens
iter:   1 19:10:20   -25.050024   -1.12
iter:   2 19:10:23   -90.917466   -0.50  -1.20
iter:   3 19:10:26   -28.506559   +0.17  -0.75
iter:   4 19:10:28   -36.169934   -1.53  -1.13
iter:   5 19:10:31   -24.596950   -1.66  -0.99
iter:   6 19:10:33   -21.512119   -2.92  -1.22
iter:   7 19:10:36   -21.641280   -2.98  -1.61
iter:   8 19:10:38   -21.019014   -3.66  -1.59
iter:   9 19:10:41   -20.950369   -3.75  -1.91
iter:  10 19:10:43   -21.002129   -3.84  -2.10
iter:  11 19:10:46   -21.011067   -4.24  -2.02
iter:  12 19:10:48   -20.930930   -4.23  -2.02
iter:  13 19:10:51   -20.923731   -4.41  -2.28
iter:  14 19:10:53   -20.905934c  -4.77  -2.34
iter:  15 19:10:56   -20.903925c  -5.16  -2.63
iter:  16 19:10:59   -20.905145c  -5.39  -2.73
iter:  17 19:11:01   -20.918522c  -5.43  -2.66
iter:  18 19:11:04   -20.902735c  -5.64  -2.40
iter:  19 19:11:06   -20.902335c  -5.86  -2.84
iter:  20 19:11:09   -20.902814c  -6.00  -2.91
iter:  21 19:11:11   -20.902024c  -5.71  -2.89
iter:  22 19:11:14   -20.902203c  -6.06  -3.06
iter:  23 19:11:16   -20.904003c  -5.79  -3.04
iter:  24 19:11:19   -20.901694c  -6.55  -2.86
iter:  25 19:11:22   -20.901728c  -6.41  -3.27
iter:  26 19:11:24   -20.901558c  -6.67  -3.28
iter:  27 19:11:27   -20.901515c  -6.70  -3.47
iter:  28 19:11:29   -20.901586c  -7.10  -3.56
iter:  29 19:11:32   -20.901609c  -7.04  -3.42
iter:  30 19:11:34   -20.901683c  -7.35  -3.44
iter:  31 19:11:37   -20.901492c  -7.29  -3.33
iter:  32 19:11:39   -20.901469c  -7.85c -3.66
iter:  33 19:11:42   -20.901466c  -8.02c -3.80
iter:  34 19:11:45   -20.901482c  -8.18c -3.84
iter:  35 19:11:47   -20.901470c  -7.78c -3.72
iter:  36 19:11:50   -20.901484c  -8.38c -3.81
iter:  37 19:11:52   -20.901457c  -8.05c -3.71
iter:  38 19:11:55   -20.901459c  -8.12c -3.94
iter:  39 19:11:57   -20.901457c  -7.83c -3.92
iter:  40 19:12:00   -20.901459c  -8.11c -3.94
iter:  41 19:12:02   -20.901452c  -8.08c -3.91
iter:  42 19:12:05   -20.901486c  -8.27c -4.05c

Converged after 42 iterations.

Dipole moment: (-0.000000, -0.000000, -0.000908) |e|*Ang

Energy contributions relative to reference atoms: (reference = -70697.767962)

Kinetic:        +22.361198
Potential:      -19.419982
External:        +0.000000
XC:             -23.330437
Entropy (-ST):   -0.002644
Local:           -0.510943
SIC:             +0.000000
--------------------------
Free energy:    -20.902808
Extrapolated:   -20.901486

Showing only first 2 kpts
 Kpt  Band  Eigenvalues  Occupancy
  0    54     -3.28165    2.00000
  0    55     -3.05416    2.00000
  0    56     -2.78922    2.00000
  0    57     -2.49654    2.00000

  1    54     -3.21355    2.00000
  1    55     -2.98634    2.00000
  1    56     -2.72176    2.00000
  1    57     -2.42942    2.00000


Fermi level: -0.78350

No gap

Forces in eV/Ang:
  0 Na    0.00000    0.00000   -0.00150
  1 Na    0.00000    0.00000    0.00142
  2 Na   -0.00000    0.00000   -0.00554
  3 Na   -0.00000    0.00000   -0.00083
  4 Na    0.00000    0.00000    0.00032
  5 Na    0.00000   -0.00000    0.00112
  6 Na    0.00000    0.00000    0.00408
  7 Na    0.00000    0.00000   -0.00046
  8 Na    0.00000   -0.00000    0.00241
  9 Na   -0.00000    0.00000   -0.00282
 10 Na    0.00000    0.00000    0.00117
 11 Na    0.00000    0.00000   -0.00238
 12 Na    0.00000    0.00000    0.00237
 13 Na    0.00000    0.00000    0.00272
 14 Na    0.00000    0.00000   -0.00053
 15 Na    0.00000    0.00000    0.00006

Timing:                                      incl.     excl.
-------------------------------------------------------------------
Density initialized from wave functions:     3.466     3.368   0.2% |
 Symmetrize density:                         0.098     0.098   0.0% |
Forces:                                     22.003    22.003   1.5% ||
Hamiltonian:                                 5.218     0.018   0.0% |
 Atomic:                                     0.503     0.503   0.0% |
  XC Correction:                             0.000     0.000   0.0% |
 Calculate atomic Hamiltonians:              2.098     2.098   0.1% |
 Communicate:                                0.001     0.001   0.0% |
 Initialize Hamiltonian:                     0.001     0.001   0.0% |
 Poisson:                                    0.028     0.028   0.0% |
 XC 3D grid:                                 2.569     2.569   0.2% |
LCAO initialization:                         1.494     0.008   0.0% |
 LCAO eigensolver:                           0.370     0.000   0.0% |
  Calculate projections:                     0.001     0.001   0.0% |
  DenseAtomicCorrection:                     0.005     0.005   0.0% |
  Distribute overlap matrix:                 0.000     0.000   0.0% |
  Orbital Layouts:                           0.022     0.022   0.0% |
  Potential matrix:                          0.339     0.339   0.0% |
  Sum over cells:                            0.003     0.003   0.0% |
 LCAO to grid:                               0.994     0.994   0.1% |
 Set positions (LCAO WFS):                   0.122     0.025   0.0% |
  Basic WFS set positions:                   0.001     0.001   0.0% |
  Basis functions set positions:             0.000     0.000   0.0% |
  P tci:                                     0.046     0.046   0.0% |
  ST tci:                                    0.038     0.038   0.0% |
  mktci:                                     0.012     0.012   0.0% |
PWDescriptor:                                0.249     0.249   0.0% |
Redistribute:                                0.011     0.011   0.0% |
SCF-cycle:                                 859.941    24.763   1.7% ||
 Davidson:                                 619.245   218.081  14.6% |-----|
  Apply H:                                  43.112    41.653   2.8% ||
   HMM T:                                    1.459     1.459   0.1% |
  Subspace diag:                            60.694     0.176   0.0% |
   calc_h_matrix:                           38.190    17.000   1.1% |
    Apply H:                                21.190    20.445   1.4% ||
     HMM T:                                  0.745     0.745   0.0% |
   diagonalize:                              2.776     2.776   0.2% |
   rotate_psi:                              19.552    19.552   1.3% ||
  calc. matrices:                          200.345   157.433  10.5% |---|
   Apply H:                                 42.912    41.496   2.8% ||
    HMM T:                                   1.416     1.416   0.1% |
  diagonalize:                              23.623    23.623   1.6% ||
  rotate_psi:                               73.390    73.390   4.9% |-|
 Density:                                   87.524     0.005   0.0% |
  Atomic density matrices:                  10.436    10.436   0.7% |
  Mix:                                      60.071    60.071   4.0% |-|
  Multipole moments:                         0.050     0.050   0.0% |
  Pseudo density:                           16.962    14.340   1.0% |
   Symmetrize density:                       2.622     2.622   0.2% |
 Hamiltonian:                              125.204     0.406   0.0% |
  Atomic:                                   10.940    10.940   0.7% |
   XC Correction:                            0.001     0.001   0.0% |
  Calculate atomic Hamiltonians:            49.949    49.949   3.3% ||
  Communicate:                               0.086     0.086   0.0% |
  Poisson:                                   0.693     0.693   0.0% |
  XC 3D grid:                               63.130    63.130   4.2% |-|
 Orthonormalize:                             3.205     0.007   0.0% |
  calc_s_matrix:                             0.637     0.637   0.0% |
  inverse-cholesky:                          0.084     0.084   0.0% |
  projections:                               1.748     1.748   0.1% |
  rotate_psi_s:                              0.730     0.730   0.0% |
Set symmetry:                                0.002     0.002   0.0% |
Other:                                     600.546   600.546  40.2% |---------------|
-------------------------------------------------------------------
Total:                                              1492.930 100.0%

Memory usage: 1.10 GiB
Date: Wed Feb 26 19:21:56 2025
