
  ___ ___ ___ _ _ _  
 |   |   |_  | | | | 
 | | | | | . | | | | 
 |__ |  _|___|_____|  24.1.0
 |___|_|             

User:   husi@vera-r04-07
Date:   Wed Feb 26 18:14:43 2025
Arch:   x86_64
Pid:    1475527
CWD:    /cephyr/users/husi/Vera/A3
Python: 3.11.3
gpaw:   /apps/Arch/software/GPAW/24.1.0-foss-2023a/lib/python3.11/site-packages/gpaw
_gpaw:  /apps/Arch/software/GPAW/24.1.0-foss-2023a/lib/python3.11/site-packages/
        _gpaw.cpython-311-x86_64-linux-gnu.so
ase:    /apps/Arch/software/ASE/3.22.1-gfbf-2023a/lib/python3.11/site-packages/ase (version 3.22.1)
numpy:  /apps/Arch/software/SciPy-bundle/2023.07-gfbf-2023a/lib/python3.11/site-packages/numpy (version 1.25.1)
scipy:  /apps/Arch/software/SciPy-bundle/2023.07-gfbf-2023a/lib/python3.11/site-packages/scipy (version 1.11.1)
libxc:  6.2.2
units:  Angstrom and eV
cores: 32
OpenMP: False
OMP_NUM_THREADS: 1

Input parameters:
  kpts: [8 8 1]
  mode: {ecut: 500.0,
         name: pw}
  occupations: {fixmagmom: False,
                name: fermi-dirac,
                width: 0.01}
  xc: PBE

System changes: positions, numbers, cell, pbc, initial_charges, initial_magmoms 

Initialize ...

species:
  Na:
    name: Sodium
    id: d7ecbc49209718622bcbe287195dca2a
    Z: 11.0
    valence: 7
    core: 4
    charge: 0.0
    file: /apps/Common/software/GPAW-setups/24.1.0/Na.PBE.gz
    compensation charges: {type: gauss,
                           rc: 0.37,
                           lmax: 2}
    cutoffs: {filter: 2.17,
              core: 2.59}
    valence states:
      #              energy  rcut
      - 3s(1.00)    -2.744   1.201
      - 2p(6.00)   -28.672   1.217
      - 3p(0.00)    -0.743   1.217
      -  s          24.468   1.201
      -  d           0.000   1.238
  
    # Using partial waves for Na as LCAO basis

Reference energy: -44186.104977  # eV

Spin-paired calculation

Convergence criteria:
 Maximum [total energy] change in last 3 cyles: 0.0005 eV / valence electron
 Maximum integral of absolute [dens]ity change: 0.0001 electrons / valence electron
 Maximum integral of absolute [eigenst]ate change: 4e-08 eV^2 / valence electron
 Maximum number of scf [iter]ations: 333
 (Square brackets indicate name in SCF output, whereas a 'c' in
 the SCF output indicates the quantity has converged.)

Symmetries present (total): 2

  ( 1  0  0)  (-1  0  0)
  ( 0  1  0)  ( 0  1  0)
  ( 0  0  1)  ( 0  0  1)

64 k-points: 8 x 8 x 1 Monkhorst-Pack grid
16 k-points in the irreducible part of the Brillouin zone
       k-points in crystal coordinates                weights
   0:     0.06250000    0.06250000    0.00000000          4/64
   1:     0.06250000    0.18750000    0.00000000          4/64
   2:     0.06250000    0.31250000    0.00000000          4/64
   3:     0.06250000    0.43750000    0.00000000          4/64
   4:     0.18750000    0.06250000    0.00000000          4/64
   5:     0.18750000    0.18750000    0.00000000          4/64
   6:     0.18750000    0.31250000    0.00000000          4/64
   7:     0.18750000    0.43750000    0.00000000          4/64
   8:     0.31250000    0.06250000    0.00000000          4/64
   9:     0.31250000    0.18750000    0.00000000          4/64
          ...
  15:     0.43750000    0.43750000    0.00000000          4/64

Wave functions: Plane wave expansion
  Cutoff energy: 500.000 eV
  Number of coefficients (min, max): 24737, 24895
  Pulay-stress correction: 0.000000 eV/Ang^3 (de/decut=0.000000)
  Using FFTW library
  ScaLapack parameters: grid=1x1, blocksize=None
  Wavefunction extrapolation:
    Improved wavefunction reuse through dual PAW basis 

Occupation numbers: Fermi-Dirac:
  width: 0.0100  # eV
 

Eigensolver
   Davidson(niter=2) 

Densities:
  Coarse grid: 32*20*240 grid
  Fine grid: 64*40*480 grid
  Total Charge: 0.000000 

Density mixing:
  Method: separate
  Backend: pulay
  Linear mixing parameter: 0.05
  old densities: 5
  Damping of long wavelength oscillations: 50 

Hamiltonian:
  XC and Coulomb potentials evaluated on a 64*40*480 grid
  Using the PBE Exchange-Correlation functional
  External potential:
    NoExternalPotential
 

XC parameters: PBE with 2 nearest neighbor stencil

Memory estimate:
  Process memory now: 461.15 MiB
  Calculator: 108.80 MiB
    Density: 68.44 MiB
      Arrays: 30.47 MiB
      Localized functions: 26.25 MiB
      Mixer: 11.72 MiB
    Hamiltonian: 20.46 MiB
      Arrays: 19.92 MiB
      XC: 0.00 MiB
      Poisson: 0.00 MiB
      vbar: 0.54 MiB
    Wavefunctions: 19.90 MiB
      Arrays psit_nG: 8.74 MiB
      Eigensolver: 2.22 MiB
      Projections: 0.05 MiB
      Projectors: 2.66 MiB
      PW-descriptor: 6.24 MiB

Total number of cores used: 32
Parallelization over k-points: 16
Parallelization over states: 2

Number of atoms: 10
Number of atomic orbitals: 70
Number of bands in calculation: 46
Number of valence electrons: 70
Bands to converge: occupied

... initialized

Initializing position-dependent things.

Density initialized from atomic densities
Creating initial wave functions:
  46 bands from LCAO basis set

   .--------------.  
  /|              |  
 * |              |  
 | |              |  
 | |              |  
 | |              |  
 | |              |  
 | |              |  
 | |              |  
 | |              |  
 | |              |  
 | |              |  
 | |              |  
 | |              |  
 | |              |  
 | |              |  
 | |              |  
 | |              |  
 | |       Na     |  
 | |              |  
 | |              |  
 |Na              |  
 | |              |  
 | |              |  
 | |     Na       |  
 | |              |  
 | |              |  
 Na|              |  
 | |      Na      |  
 | |              |  
 |Na              |  
 | |              |  
 | |              |  
 | |     Na       |  
 |Na              |  
 | |              |  
 | |              |  
 | |     Na       |  
 | |              |  
 | |              |  
 Na|              |  
 | |              |  
 | |              |  
 | |              |  
 | |              |  
 | |              |  
 | |              |  
 | |              |  
 | |              |  
 | |              |  
 | |              |  
 | |              |  
 | |              |  
 | |              |  
 | |              |  
 | |              |  
 | .--------------.  
 |/              /   
 *--------------*    

Positions:
   0 Na     0.000000    0.000000   15.000000    ( 0.0000,  0.0000,  0.0000)
   1 Na     2.965040    1.210473   16.711867    ( 0.0000,  0.0000,  0.0000)
   2 Na     0.000000    2.420945   18.423733    ( 0.0000,  0.0000,  0.0000)
   3 Na     2.965040    0.000000   20.135600    ( 0.0000,  0.0000,  0.0000)
   4 Na     0.000000    1.210473   21.847467    ( 0.0000,  0.0000,  0.0000)
   5 Na     2.965040    2.420945   23.559334    ( 0.0000,  0.0000,  0.0000)
   6 Na     0.000000    0.000000   25.271200    ( 0.0000,  0.0000,  0.0000)
   7 Na     2.965040    1.210473   26.983067    ( 0.0000,  0.0000,  0.0000)
   8 Na     0.000000    2.420945   28.694934    ( 0.0000,  0.0000,  0.0000)
   9 Na     2.965040    3.631418   30.406801    ( 0.0000,  0.0000,  0.0000)

Unit cell:
           periodic     x           y           z      points  spacing
  1. axis:    yes    5.930080    0.000000    0.000000    32     0.1853
  2. axis:    yes    0.000000    3.631418    0.000000    20     0.1816
  3. axis:    no     0.000000    0.000000   45.406801   240     0.1892

  Lengths:   5.930080   3.631418  45.406801
  Angles:   90.000000  90.000000  90.000000

Effective grid spacing dv^(1/3) = 0.1853

     iter     time        total  log10-change:
                         energy   eigst   dens
iter:   1 18:14:48   -12.725742
iter:   2 18:14:49   -12.652578   -1.36  -1.55
iter:   3 18:14:50   -12.630699   -2.04  -1.63
iter:   4 18:14:51   -12.614426   -2.30  -1.68
iter:   5 18:14:52   -12.580384   -2.79  -1.87
iter:   6 18:14:53   -12.594558c  -2.83  -2.07
iter:   7 18:14:53   -12.591062c  -3.46  -2.40
iter:   8 18:14:54   -12.583338c  -3.57  -2.48
iter:   9 18:14:55   -12.583308c  -4.18  -3.15
iter:  10 18:14:56   -12.583153c  -4.60  -3.25
iter:  11 18:14:57   -12.582504c  -4.57  -3.29
iter:  12 18:14:58   -12.582517c  -5.10  -3.75
iter:  13 18:14:59   -12.582524c  -5.63  -3.84
iter:  14 18:15:00   -12.582524c  -5.80  -3.87
iter:  15 18:15:01   -12.582521c  -6.16  -4.16c
iter:  16 18:15:01   -12.582518c  -6.53  -4.52c
iter:  17 18:15:02   -12.582518c  -6.89  -4.63c
iter:  18 18:15:03   -12.582518c  -7.25  -4.67c
iter:  19 18:15:04   -12.582519c  -7.35  -4.71c
iter:  20 18:15:05   -12.582519c  -7.90c -4.96c

Converged after 20 iterations.

Dipole moment: (0.000000, -0.000000, -0.000013) |e|*Ang

Energy contributions relative to reference atoms: (reference = -44186.104977)

Kinetic:        +12.397611
Potential:      -10.924470
External:        +0.000000
XC:             -13.735464
Entropy (-ST):   -0.003260
Local:           -0.318566
SIC:             +0.000000
--------------------------
Free energy:    -12.584149
Extrapolated:   -12.582519

Showing only first 2 kpts
 Kpt  Band  Eigenvalues  Occupancy
  0    33     -3.11456    2.00000
  0    34     -2.31370    2.00000
  0    35     -1.45372    0.25113
  0    36     -0.90886    0.00000

  1    33     -2.75628    2.00000
  1    34     -1.96004    2.00000
  1    35     -1.10568    0.00000
  1    36     -0.57290    0.00000


Fermi level: -1.47313

No gap

Forces in eV/Ang:
  0 Na    0.00000   -0.03526    0.06301
  1 Na    0.00000    0.03646   -0.02893
  2 Na    0.00000   -0.00093   -0.01659
  3 Na    0.00000    0.00008    0.00126
  4 Na    0.00000   -0.00052   -0.01001
  5 Na    0.00000    0.00052    0.01004
  6 Na    0.00000   -0.00008   -0.00123
  7 Na    0.00000    0.00093    0.01661
  8 Na    0.00000   -0.03646    0.02894
  9 Na    0.00000    0.03526   -0.06301

System changes: positions 

Initializing position-dependent things.

Density initialized from wave functions
   .--------------.  
  /|              |  
 * |              |  
 | |              |  
 | |              |  
 | |              |  
 | |              |  
 | |              |  
 | |              |  
 | |              |  
 | |              |  
 | |              |  
 | |              |  
 | |              |  
 | |              |  
 | |              |  
 | |              |  
 | |              |  
 | |              |  
 | |              |  
 | |              |  
 |Na     Na       |  
 | |              |  
 | |              |  
 | |     Na       |  
 | Na             |  
 | |              |  
 | |              |  
 | |      Na      |  
 | |              |  
 |Na              |  
 | |              |  
 | |              |  
 | |     Na       |  
 |Na              |  
 | |              |  
 | |              |  
 | Na    Na       |  
 | |              |  
 | |              |  
 | |              |  
 | |              |  
 | |              |  
 | |              |  
 | |              |  
 | |              |  
 | |              |  
 | |              |  
 | |              |  
 | |              |  
 | |              |  
 | |              |  
 | |              |  
 | |              |  
 | |              |  
 | |              |  
 | .--------------.  
 |/              /   
 *--------------*    

Positions:
   0 Na     0.000000   -0.000504   15.000900    ( 0.0000,  0.0000,  0.0000)
   1 Na     2.965040    1.210993   16.711453    ( 0.0000,  0.0000,  0.0000)
   2 Na     0.000000    2.420932   18.423496    ( 0.0000,  0.0000,  0.0000)
   3 Na     2.965040    0.000001   20.135618    ( 0.0000,  0.0000,  0.0000)
   4 Na     0.000000    1.210465   21.847324    ( 0.0000,  0.0000,  0.0000)
   5 Na     2.965040    2.420953   23.559477    ( 0.0000,  0.0000,  0.0000)
   6 Na     0.000000   -0.000001   25.271183    ( 0.0000,  0.0000,  0.0000)
   7 Na     2.965040    1.210486   26.983304    ( 0.0000,  0.0000,  0.0000)
   8 Na     0.000000    2.420424   28.695347    ( 0.0000,  0.0000,  0.0000)
   9 Na     2.965040    3.631921   30.405900    ( 0.0000,  0.0000,  0.0000)

Unit cell:
           periodic     x           y           z      points  spacing
  1. axis:    yes    5.930080    0.000000    0.000000    32     0.1853
  2. axis:    yes    0.000000    3.631418    0.000000    20     0.1816
  3. axis:    no     0.000000    0.000000   45.406801   240     0.1892

  Lengths:   5.930080   3.631418  45.406801
  Angles:   90.000000  90.000000  90.000000

Effective grid spacing dv^(1/3) = 0.1853

     iter     time        total  log10-change:
                         energy   eigst   dens
iter:   1 18:15:07   -12.582815   -5.94
iter:   2 18:15:08   -12.582750   -6.75  -3.40
iter:   3 18:15:09   -12.582756c  -7.29  -3.83
iter:   4 18:15:10   -12.582740c  -7.79c -3.76
iter:   5 18:15:11   -12.582745c  -8.01c -4.29c

Converged after 5 iterations.

Dipole moment: (0.000000, -0.000000, -0.000000) |e|*Ang

Energy contributions relative to reference atoms: (reference = -44186.104977)

Kinetic:        +12.468376
Potential:      -10.986022
External:        +0.000000
XC:             -13.744659
Entropy (-ST):   -0.003250
Local:           -0.318815
SIC:             +0.000000
--------------------------
Free energy:    -12.584370
Extrapolated:   -12.582745

Showing only first 2 kpts
 Kpt  Band  Eigenvalues  Occupancy
  0    33     -3.11459    2.00000
  0    34     -2.31343    2.00000
  0    35     -1.45336    0.24515
  0    36     -0.90875    0.00000

  1    33     -2.75631    2.00000
  1    34     -1.95977    2.00000
  1    35     -1.10532    0.00000
  1    36     -0.57280    0.00000


Fermi level: -1.47305

No gap

Forces in eV/Ang:
  0 Na    0.00000   -0.03490    0.06319
  1 Na    0.00000    0.03609   -0.02862
  2 Na    0.00000   -0.00110   -0.01683
  3 Na    0.00000    0.00007    0.00182
  4 Na    0.00000   -0.00044   -0.00927
  5 Na    0.00000    0.00044    0.00934
  6 Na    0.00000   -0.00007   -0.00179
  7 Na    0.00000    0.00110    0.01685
  8 Na    0.00000   -0.03610    0.02864
  9 Na    0.00000    0.03490   -0.06319

System changes: positions 

Initializing position-dependent things.

Density initialized from wave functions
   .--------------.  
  /|              |  
 * |              |  
 | |              |  
 | |              |  
 | |              |  
 | |              |  
 | |              |  
 | |              |  
 | |              |  
 | |              |  
 | |              |  
 | |              |  
 | |              |  
 | |              |  
 | |              |  
 | |              |  
 | |              |  
 | |              |  
 | |              |  
 | |              |  
 |Na     Na       |  
 | |              |  
 | |              |  
 | |     Na       |  
 | Na             |  
 | |              |  
 | |              |  
 | |      Na      |  
 | |              |  
 |Na              |  
 | |              |  
 | |              |  
 | |     Na       |  
 |Na              |  
 | |              |  
 | |              |  
 | Na    Na       |  
 | |              |  
 | |              |  
 | |              |  
 | |              |  
 | |              |  
 | |              |  
 | |              |  
 | |              |  
 | |              |  
 | |              |  
 | |              |  
 | |              |  
 | |              |  
 | |              |  
 | |              |  
 | |              |  
 | |              |  
 | |              |  
 | .--------------.  
 |/              /   
 *--------------*    

Positions:
   0 Na     0.000000   -0.097237   15.175949    ( 0.0000,  0.0000,  0.0000)
   1 Na     2.965040    1.311037   16.632118    ( 0.0000,  0.0000,  0.0000)
   2 Na     0.000000    2.417907   18.376908    ( 0.0000,  0.0000,  0.0000)
   3 Na     2.965040    0.000184   20.140601    ( 0.0000,  0.0000,  0.0000)
   4 Na     0.000000    1.209225   21.821559    ( 0.0000,  0.0000,  0.0000)
   5 Na     2.965040    2.422195   23.585446    ( 0.0000,  0.0000,  0.0000)
   6 Na    -0.000000   -0.000186   25.266290    ( 0.0000,  0.0000,  0.0000)
   7 Na     2.965040    1.213510   27.029946    ( 0.0000,  0.0000,  0.0000)
   8 Na    -0.000000    2.320378   28.774736    ( 0.0000,  0.0000,  0.0000)
   9 Na     2.965040    3.728654   30.230849    ( 0.0000,  0.0000,  0.0000)

Unit cell:
           periodic     x           y           z      points  spacing
  1. axis:    yes    5.930080    0.000000    0.000000    32     0.1853
  2. axis:    yes    0.000000    3.631418    0.000000    20     0.1816
  3. axis:    no     0.000000    0.000000   45.406801   240     0.1892

  Lengths:   5.930080   3.631418  45.406801
  Angles:   90.000000  90.000000  90.000000

Effective grid spacing dv^(1/3) = 0.1853

     iter     time        total  log10-change:
                         energy   eigst   dens
iter:   1 18:15:13   -14.942567   -1.65
iter:   2 18:15:14   -12.652663   -2.51  -1.20
iter:   3 18:15:14   -12.622608   -3.16  -1.93
iter:   4 18:15:15   -12.627570c  -3.45  -2.10
iter:   5 18:15:16   -12.605407c  -4.04  -2.14
iter:   6 18:15:17   -12.600887c  -4.56  -2.33
iter:   7 18:15:18   -12.597153c  -4.42  -2.43
iter:   8 18:15:19   -12.597424c  -4.71  -2.74
iter:   9 18:15:20   -12.597551c  -5.19  -2.82
iter:  10 18:15:21   -12.597732c  -5.44  -2.87
iter:  11 18:15:22   -12.597754c  -5.51  -2.97
iter:  12 18:15:22   -12.597616c  -5.36  -3.12
iter:  13 18:15:23   -12.597614c  -5.89  -3.69
iter:  14 18:15:24   -12.597607c  -6.28  -3.75
iter:  15 18:15:25   -12.597605c  -6.57  -4.06c
iter:  16 18:15:26   -12.597603c  -7.03  -4.33c
iter:  17 18:15:27   -12.597603c  -7.42c -4.46c

Converged after 17 iterations.

Dipole moment: (0.000000, 0.000017, -0.000008) |e|*Ang

Energy contributions relative to reference atoms: (reference = -44186.104977)

Kinetic:        +13.350087
Potential:      -11.622231
External:        +0.000000
XC:             -14.006656
Entropy (-ST):   -0.002859
Local:           -0.317374
SIC:             +0.000000
--------------------------
Free energy:    -12.599033
Extrapolated:   -12.597603

Showing only first 2 kpts
 Kpt  Band  Eigenvalues  Occupancy
  0    33     -3.13869    2.00000
  0    34     -2.28321    2.00000
  0    35     -1.40544    0.00017
  0    36     -0.92735    0.00000

  1    33     -2.78044    2.00000
  1    34     -1.93044    2.00000
  1    35     -1.05862    0.00000
  1    36     -0.59142    0.00000


Fermi level: -1.49928

No gap

Forces in eV/Ang:
  0 Na    0.00000   -0.00896   -0.04063
  1 Na    0.00000    0.02255    0.01680
  2 Na    0.00000   -0.01919    0.07193
  3 Na    0.00000    0.00096   -0.02844
  4 Na    0.00000    0.00523    0.00468
  5 Na    0.00000   -0.00523   -0.00416
  6 Na    0.00000   -0.00096    0.02855
  7 Na    0.00000    0.01919   -0.07223
  8 Na    0.00000   -0.02256   -0.01711
  9 Na    0.00000    0.00896    0.04051

System changes: positions 

Initializing position-dependent things.

Density initialized from wave functions
   .--------------.  
  /|              |  
 * |              |  
 | |              |  
 | |              |  
 | |              |  
 | |              |  
 | |              |  
 | |              |  
 | |              |  
 | |              |  
 | |              |  
 | |              |  
 | |              |  
 | |              |  
 | |              |  
 | |              |  
 | |              |  
 | |              |  
 | |              |  
 | |              |  
 |Na     Na       |  
 | |              |  
 | |              |  
 | |     Na       |  
 | Na             |  
 | |              |  
 | |              |  
 | |      Na      |  
 | |              |  
 |Na              |  
 | |              |  
 | |              |  
 | |     Na       |  
 |Na              |  
 | |              |  
 | |              |  
 | Na    Na       |  
 | |              |  
 | |              |  
 | |              |  
 | |              |  
 | |              |  
 | |              |  
 | |              |  
 | |              |  
 | |              |  
 | |              |  
 | |              |  
 | |              |  
 | |              |  
 | |              |  
 | |              |  
 | |              |  
 | |              |  
 | |              |  
 | .--------------.  
 |/              /   
 *--------------*    

Positions:
   0 Na     0.000000   -0.069288   15.124814    ( 0.0000,  0.0000,  0.0000)
   1 Na     2.965040    1.282265   16.655284    ( 0.0000,  0.0000,  0.0000)
   2 Na     0.000000    2.418587   18.391131    ( 0.0000,  0.0000,  0.0000)
   3 Na     2.965040    0.000140   20.138880    ( 0.0000,  0.0000,  0.0000)
   4 Na    -0.000000    1.209639   21.829087    ( 0.0000,  0.0000,  0.0000)
   5 Na     2.965040    2.421781   23.577865    ( 0.0000,  0.0000,  0.0000)
   6 Na     0.000000   -0.000142   25.267985    ( 0.0000,  0.0000,  0.0000)
   7 Na     2.965040    1.212830   27.015705    ( 0.0000,  0.0000,  0.0000)
   8 Na     0.000000    2.349150   28.751551    ( 0.0000,  0.0000,  0.0000)
   9 Na     2.965040    3.700704   30.281984    ( 0.0000,  0.0000,  0.0000)

Unit cell:
           periodic     x           y           z      points  spacing
  1. axis:    yes    5.930080    0.000000    0.000000    32     0.1853
  2. axis:    yes    0.000000    3.631418    0.000000    20     0.1816
  3. axis:    no     0.000000    0.000000   45.406801   240     0.1892

  Lengths:   5.930080   3.631418  45.406801
  Angles:   90.000000  90.000000  90.000000

Effective grid spacing dv^(1/3) = 0.1853

     iter     time        total  log10-change:
                         energy   eigst   dens
iter:   1 18:15:29   -12.810233   -2.68
iter:   2 18:15:30   -12.606840   -3.53  -1.69
iter:   3 18:15:31   -12.604326   -4.22  -2.47
iter:   4 18:15:32   -12.604980c  -4.61  -2.54
iter:   5 18:15:33   -12.600105c  -4.82  -2.54
iter:   6 18:15:33   -12.600058c  -5.31  -2.95
iter:   7 18:15:34   -12.599954c  -5.38  -3.07
iter:   8 18:15:35   -12.599963c  -5.95  -3.31
iter:   9 18:15:36   -12.599986c  -6.07  -3.34
iter:  10 18:15:37   -12.600024c  -6.35  -3.54
iter:  11 18:15:38   -12.599967c  -6.50  -3.48
iter:  12 18:15:39   -12.599967c  -6.88  -3.97
iter:  13 18:15:40   -12.599969c  -7.25  -4.14c
iter:  14 18:15:41   -12.599970c  -7.51c -4.20c

Converged after 14 iterations.

Dipole moment: (0.000000, 0.000014, 0.000027) |e|*Ang

Energy contributions relative to reference atoms: (reference = -44186.104977)

Kinetic:        +13.003073
Potential:      -11.363363
External:        +0.000000
XC:             -13.919662
Entropy (-ST):   -0.002856
Local:           -0.318590
SIC:             +0.000000
--------------------------
Free energy:    -12.601398
Extrapolated:   -12.599970

Showing only first 2 kpts
 Kpt  Band  Eigenvalues  Occupancy
  0    33     -3.12987    2.00000
  0    34     -2.28988    2.00000
  0    35     -1.41715    0.00162
  0    36     -0.91892    0.00000

  1    33     -2.77161    2.00000
  1    34     -1.93685    2.00000
  1    35     -1.06997    0.00000
  1    36     -0.58295    0.00000


Fermi level: -1.48832

No gap

Forces in eV/Ang:
  0 Na    0.00000   -0.01849   -0.00618
  1 Na    0.00000    0.02703    0.00342
  2 Na    0.00000   -0.01291    0.04400
  3 Na    0.00000    0.00095   -0.01830
  4 Na    0.00000    0.00367    0.00011
  5 Na    0.00000   -0.00366    0.00009
  6 Na    0.00000   -0.00094    0.01840
  7 Na    0.00000    0.01291   -0.04405
  8 Na    0.00000   -0.02703   -0.00365
  9 Na    0.00000    0.01848    0.00601

System changes: positions 

Initializing position-dependent things.

Density initialized from wave functions
   .--------------.  
  /|              |  
 * |              |  
 | |              |  
 | |              |  
 | |              |  
 | |              |  
 | |              |  
 | |              |  
 | |              |  
 | |              |  
 | |              |  
 | |              |  
 | |              |  
 | |              |  
 | |              |  
 | |              |  
 | |              |  
 | |              |  
 | |              |  
 | |              |  
 |Na     Na       |  
 | |              |  
 | |              |  
 | |     Na       |  
 | Na             |  
 | |              |  
 | |              |  
 | |      Na      |  
 | |              |  
 |Na              |  
 | |              |  
 | |              |  
 | |     Na       |  
 |Na              |  
 | |              |  
 | |              |  
 | Na    Na       |  
 | |              |  
 | |              |  
 | |              |  
 | |              |  
 | |              |  
 | |              |  
 | |              |  
 | |              |  
 | |              |  
 | |              |  
 | |              |  
 | |              |  
 | |              |  
 | |              |  
 | |              |  
 | |              |  
 | |              |  
 | |              |  
 | .--------------.  
 |/              /   
 *--------------*    

Positions:
   0 Na     0.000000   -0.072177   15.129501    ( 0.0000,  0.0000,  0.0000)
   1 Na     2.965040    1.285366   16.653174    ( 0.0000,  0.0000,  0.0000)
   2 Na     0.000000    2.418320   18.390474    ( 0.0000,  0.0000,  0.0000)
   3 Na     2.965040    0.000158   20.138769    ( 0.0000,  0.0000,  0.0000)
   4 Na    -0.000000    1.209657   21.828399    ( 0.0000,  0.0000,  0.0000)
   5 Na     2.965040    2.421762   23.578563    ( 0.0000,  0.0000,  0.0000)
   6 Na     0.000000   -0.000159   25.268101    ( 0.0000,  0.0000,  0.0000)
   7 Na     2.965040    1.213097   27.016363    ( 0.0000,  0.0000,  0.0000)
   8 Na     0.000000    2.346050   28.753660    ( 0.0000,  0.0000,  0.0000)
   9 Na     2.965040    3.703594   30.277294    ( 0.0000,  0.0000,  0.0000)

Unit cell:
           periodic     x           y           z      points  spacing
  1. axis:    yes    5.930080    0.000000    0.000000    32     0.1853
  2. axis:    yes    0.000000    3.631418    0.000000    20     0.1816
  3. axis:    no     0.000000    0.000000   45.406801   240     0.1892

  Lengths:   5.930080   3.631418  45.406801
  Angles:   90.000000  90.000000  90.000000

Effective grid spacing dv^(1/3) = 0.1853

     iter     time        total  log10-change:
                         energy   eigst   dens
iter:   1 18:15:43   -12.601257   -4.83
iter:   2 18:15:44   -12.600197   -5.76  -2.82
iter:   3 18:15:45   -12.600248c  -6.33  -3.36
iter:   4 18:15:45   -12.600133c  -6.82  -3.32
iter:   5 18:15:46   -12.600122c  -6.71  -3.59
iter:   6 18:15:47   -12.600120c  -7.22  -4.00
iter:   7 18:15:48   -12.600118c  -7.53c -4.20c

Converged after 7 iterations.

Dipole moment: (0.000000, 0.000013, -0.000096) |e|*Ang

Energy contributions relative to reference atoms: (reference = -44186.104977)

Kinetic:        +13.105363
Potential:      -11.448689
External:        +0.000000
XC:             -13.935377
Entropy (-ST):   -0.002854
Local:           -0.319988
SIC:             +0.000000
--------------------------
Free energy:    -12.601544
Extrapolated:   -12.600118

Showing only first 2 kpts
 Kpt  Band  Eigenvalues  Occupancy
  0    33     -3.13046    2.00000
  0    34     -2.28899    2.00000
  0    35     -1.41578    0.00132
  0    36     -0.91940    0.00000

  1    33     -2.77220    2.00000
  1    34     -1.93598    2.00000
  1    35     -1.06864    0.00000
  1    36     -0.58344    0.00000


Fermi level: -1.48903

No gap

Forces in eV/Ang:
  0 Na    0.00000   -0.01742   -0.00900
  1 Na    0.00000    0.02616    0.00622
  2 Na    0.00000   -0.01339    0.04528
  3 Na    0.00000    0.00089   -0.02057
  4 Na    0.00000    0.00371   -0.00016
  5 Na    0.00000   -0.00370   -0.00057
  6 Na    0.00000   -0.00089    0.02040
  7 Na    0.00000    0.01339   -0.04488
  8 Na    0.00000   -0.02617   -0.00552
  9 Na    0.00000    0.01742    0.00949

System changes: positions 

Initializing position-dependent things.

Density initialized from wave functions
   .--------------.  
  /|              |  
 * |              |  
 | |              |  
 | |              |  
 | |              |  
 | |              |  
 | |              |  
 | |              |  
 | |              |  
 | |              |  
 | |              |  
 | |              |  
 | |              |  
 | |              |  
 | |              |  
 | |              |  
 | |              |  
 | |              |  
 | |              |  
 | |              |  
 |Na     Na       |  
 | |              |  
 | |              |  
 | |     Na       |  
 | Na             |  
 | |              |  
 | |              |  
 | |      Na      |  
 | |              |  
 |Na              |  
 | |              |  
 | |              |  
 | |     Na       |  
 |Na              |  
 | |              |  
 | |              |  
 | Na    Na       |  
 | |              |  
 | |              |  
 | |              |  
 | |              |  
 | |              |  
 | |              |  
 | |              |  
 | |              |  
 | |              |  
 | |              |  
 | |              |  
 | |              |  
 | |              |  
 | |              |  
 | |              |  
 | |              |  
 | |              |  
 | |              |  
 | .--------------.  
 |/              /   
 *--------------*    

Positions:
   0 Na     0.000000   -0.079277   15.139327    ( 0.0000,  0.0000,  0.0000)
   1 Na     2.965040    1.293337   16.648867    ( 0.0000,  0.0000,  0.0000)
   2 Na     0.000000    2.417101   18.391142    ( 0.0000,  0.0000,  0.0000)
   3 Na     2.965040    0.000237   20.137603    ( 0.0000,  0.0000,  0.0000)
   4 Na    -0.000000    1.209876   21.826936    ( 0.0000,  0.0000,  0.0000)
   5 Na     2.965040    2.421544   23.580018    ( 0.0000,  0.0000,  0.0000)
   6 Na     0.000000   -0.000238   25.269268    ( 0.0000,  0.0000,  0.0000)
   7 Na     2.965040    1.214316   27.015712    ( 0.0000,  0.0000,  0.0000)
   8 Na     0.000000    2.338079   28.757994    ( 0.0000,  0.0000,  0.0000)
   9 Na     2.965040    3.710694   30.267484    ( 0.0000,  0.0000,  0.0000)

Unit cell:
           periodic     x           y           z      points  spacing
  1. axis:    yes    5.930080    0.000000    0.000000    32     0.1853
  2. axis:    yes    0.000000    3.631418    0.000000    20     0.1816
  3. axis:    no     0.000000    0.000000   45.406801   240     0.1892

  Lengths:   5.930080   3.631418  45.406801
  Angles:   90.000000  90.000000  90.000000

Effective grid spacing dv^(1/3) = 0.1853

     iter     time        total  log10-change:
                         energy   eigst   dens
iter:   1 18:15:50   -12.603222   -4.18
iter:   2 18:15:51   -12.600879   -5.20  -2.64
iter:   3 18:15:52   -12.600859c  -5.77  -3.12
iter:   4 18:15:53   -12.600751c  -6.23  -3.18
iter:   5 18:15:54   -12.600661c  -6.14  -3.29
iter:   6 18:15:55   -12.600663c  -6.52  -3.68
iter:   7 18:15:55   -12.600659c  -6.92  -3.87
iter:   8 18:15:57   -12.600658c  -7.23  -4.00c
iter:   9 18:15:58   -12.600659c  -7.58c -4.14c

Converged after 9 iterations.

Dipole moment: (0.000000, 0.000015, -0.000217) |e|*Ang

Energy contributions relative to reference atoms: (reference = -44186.104977)

Kinetic:        +13.169818
Potential:      -11.498174
External:        +0.000000
XC:             -13.951399
Entropy (-ST):   -0.002837
Local:           -0.319486
SIC:             +0.000000
--------------------------
Free energy:    -12.602078
Extrapolated:   -12.600659

Showing only first 2 kpts
 Kpt  Band  Eigenvalues  Occupancy
  0    33     -3.13303    2.00000
  0    34     -2.28839    2.00000
  0    35     -1.41406    0.00086
  0    36     -0.92183    0.00000

  1    33     -2.77477    2.00000
  1    34     -1.93542    2.00000
  1    35     -1.06701    0.00000
  1    36     -0.58588    0.00000


Fermi level: -1.49159

No gap

Forces in eV/Ang:
  0 Na    0.00000   -0.01554   -0.01484
  1 Na    0.00000    0.02491    0.00879
  2 Na    0.00000   -0.01420    0.04877
  3 Na    0.00000    0.00116   -0.02161
  4 Na    0.00000    0.00349    0.00107
  5 Na    0.00000   -0.00348   -0.00187
  6 Na    0.00000   -0.00116    0.02159
  7 Na    0.00000    0.01420   -0.04806
  8 Na    0.00000   -0.02490   -0.00777
  9 Na    0.00000    0.01552    0.01558

System changes: positions 

Initializing position-dependent things.

Density initialized from wave functions
   .--------------.  
  /|              |  
 * |              |  
 | |              |  
 | |              |  
 | |              |  
 | |              |  
 | |              |  
 | |              |  
 | |              |  
 | |              |  
 | |              |  
 | |              |  
 | |              |  
 | |              |  
 | |              |  
 | |              |  
 | |              |  
 | |              |  
 | |              |  
 | |              |  
 |Na     Na       |  
 | |              |  
 | |              |  
 | |     Na       |  
 | Na             |  
 | |              |  
 | |              |  
 | |      Na      |  
 | |              |  
 |Na              |  
 | |              |  
 | |              |  
 | |     Na       |  
 |Na              |  
 | |              |  
 | |              |  
 | Na    Na       |  
 | |              |  
 | |              |  
 | |              |  
 | |              |  
 | |              |  
 | |              |  
 | |              |  
 | |              |  
 | |              |  
 | |              |  
 | |              |  
 | |              |  
 | |              |  
 | |              |  
 | |              |  
 | |              |  
 | |              |  
 | |              |  
 | .--------------.  
 |/              /   
 *--------------*    

Positions:
   0 Na     0.000000   -0.098660   15.162241    ( 0.0000,  0.0000,  0.0000)
   1 Na     2.965040    1.315910   16.639010    ( 0.0000,  0.0000,  0.0000)
   2 Na     0.000000    2.412493   18.398233    ( 0.0000,  0.0000,  0.0000)
   3 Na     2.965040    0.000550   20.132524    ( 0.0000,  0.0000,  0.0000)
   4 Na    -0.000000    1.210854   21.823541    ( 0.0000,  0.0000,  0.0000)
   5 Na     2.965040    2.420569   23.583397    ( 0.0000,  0.0000,  0.0000)
   6 Na     0.000000   -0.000552   25.274364    ( 0.0000,  0.0000,  0.0000)
   7 Na     2.965040    1.218924   27.008688    ( 0.0000,  0.0000,  0.0000)
   8 Na    -0.000000    2.315504   28.767933    ( 0.0000,  0.0000,  0.0000)
   9 Na     2.965040    3.730075   30.244616    ( 0.0000,  0.0000,  0.0000)

Unit cell:
           periodic     x           y           z      points  spacing
  1. axis:    yes    5.930080    0.000000    0.000000    32     0.1853
  2. axis:    yes    0.000000    3.631418    0.000000    20     0.1816
  3. axis:    no     0.000000    0.000000   45.406801   240     0.1892

  Lengths:   5.930080   3.631418  45.406801
  Angles:   90.000000  90.000000  90.000000

Effective grid spacing dv^(1/3) = 0.1853

     iter     time        total  log10-change:
                         energy   eigst   dens
iter:   1 18:16:00   -12.607258   -3.29
iter:   2 18:16:00   -12.603801   -4.34  -2.50
iter:   3 18:16:01   -12.603800c  -4.91  -2.71
iter:   4 18:16:02   -12.602693c  -5.36  -2.77
iter:   5 18:16:03   -12.602176c  -5.39  -2.94
iter:   6 18:16:04   -12.602319c  -5.52  -3.29
iter:   7 18:16:05   -12.602232c  -6.04  -3.32
iter:   8 18:16:06   -12.602215c  -6.39  -3.66
iter:   9 18:16:07   -12.602218c  -6.69  -3.82
iter:  10 18:16:08   -12.602217c  -6.85  -4.02c
iter:  11 18:16:08   -12.602219c  -7.33  -4.32c
iter:  12 18:16:09   -12.602218c  -7.71c -4.34c

Converged after 12 iterations.

Dipole moment: (0.000000, 0.000031, 0.000002) |e|*Ang

Energy contributions relative to reference atoms: (reference = -44186.104977)

Kinetic:        +13.289439
Potential:      -11.587034
External:        +0.000000
XC:             -13.985299
Entropy (-ST):   -0.002788
Local:           -0.317930
SIC:             +0.000000
--------------------------
Free energy:    -12.603612
Extrapolated:   -12.602218

Showing only first 2 kpts
 Kpt  Band  Eigenvalues  Occupancy
  0    33     -3.13911    2.00000
  0    34     -2.28688    2.00000
  0    35     -1.40988    0.00034
  0    36     -0.92728    0.00000

  1    33     -2.78082    2.00000
  1    34     -1.93398    2.00000
  1    35     -1.06306    0.00000
  1    36     -0.59135    0.00000


Fermi level: -1.49655

No gap

Forces in eV/Ang:
  0 Na    0.00000   -0.01101   -0.02337
  1 Na    0.00000    0.02192    0.01251
  2 Na    0.00000   -0.01595    0.04946
  3 Na    0.00000    0.00220   -0.02026
  4 Na    0.00000    0.00231    0.00907
  5 Na    0.00000   -0.00231   -0.00896
  6 Na    0.00000   -0.00219    0.02035
  7 Na    0.00000    0.01595   -0.04951
  8 Na    0.00000   -0.02192   -0.01261
  9 Na    0.00000    0.01100    0.02333

System changes: positions 

Initializing position-dependent things.

Density initialized from wave functions
   .--------------.  
  /|              |  
 * |              |  
 | |              |  
 | |              |  
 | |              |  
 | |              |  
 | |              |  
 | |              |  
 | |              |  
 | |              |  
 | |              |  
 | |              |  
 | |              |  
 | |              |  
 | |              |  
 | |              |  
 | |              |  
 | |              |  
 | |              |  
 | |              |  
 |Na     Na       |  
 | |              |  
 | |              |  
 | |     Na       |  
 | Na             |  
 | |              |  
 | |              |  
 | |      Na      |  
 | |              |  
 |Na              |  
 | |              |  
 | |              |  
 | |     Na       |  
 |Na              |  
 | |              |  
 | |              |  
 | Na    Na       |  
 | |              |  
 | |              |  
 | |              |  
 | |              |  
 | |              |  
 | |              |  
 | |              |  
 | |              |  
 | |              |  
 | |              |  
 | |              |  
 | |              |  
 | |              |  
 | |              |  
 | |              |  
 | |              |  
 | |              |  
 | |              |  
 | .--------------.  
 |/              /   
 *--------------*    

Positions:
   0 Na     0.000000   -0.128438   15.191852    ( 0.0000,  0.0000,  0.0000)
   1 Na     2.965040    1.351801   16.626589    ( 0.0000,  0.0000,  0.0000)
   2 Na     0.000000    2.403526   18.416628    ( 0.0000,  0.0000,  0.0000)
   3 Na     2.965040    0.001194   20.122044    ( 0.0000,  0.0000,  0.0000)
   4 Na    -0.000000    1.212884   21.819377    ( 0.0000,  0.0000,  0.0000)
   5 Na     2.965040    2.418546   23.587570    ( 0.0000,  0.0000,  0.0000)
   6 Na     0.000000   -0.001196   25.284881    ( 0.0000,  0.0000,  0.0000)
   7 Na     2.965040    1.227892   26.990376    ( 0.0000,  0.0000,  0.0000)
   8 Na    -0.000000    2.279613   28.780442    ( 0.0000,  0.0000,  0.0000)
   9 Na     2.965040    3.759852   30.215046    ( 0.0000,  0.0000,  0.0000)

Unit cell:
           periodic     x           y           z      points  spacing
  1. axis:    yes    5.930080    0.000000    0.000000    32     0.1853
  2. axis:    yes    0.000000    3.631418    0.000000    20     0.1816
  3. axis:    no     0.000000    0.000000   45.406801   240     0.1892

  Lengths:   5.930080   3.631418  45.406801
  Angles:   90.000000  90.000000  90.000000

Effective grid spacing dv^(1/3) = 0.1853

     iter     time        total  log10-change:
                         energy   eigst   dens
iter:   1 18:16:11   -12.611394   -2.92
iter:   2 18:16:12   -12.607073   -3.97  -2.39
iter:   3 18:16:13   -12.604988c  -4.50  -2.56
iter:   4 18:16:14   -12.604364c  -4.78  -2.77
iter:   5 18:16:15   -12.604041c  -5.36  -2.98
iter:   6 18:16:16   -12.604403c  -5.18  -3.12
iter:   7 18:16:17   -12.604164c  -5.53  -3.16
iter:   8 18:16:18   -12.604165c  -6.09  -3.89
iter:   9 18:16:19   -12.604163c  -6.41  -3.94
iter:  10 18:16:20   -12.604160c  -6.73  -4.18c
iter:  11 18:16:21   -12.604160c  -7.11  -4.35c
iter:  12 18:16:21   -12.604159c  -7.42c -4.38c

Converged after 12 iterations.

Dipole moment: (0.000000, 0.000046, 0.000032) |e|*Ang

Energy contributions relative to reference atoms: (reference = -44186.104977)

Kinetic:        +13.407343
Potential:      -11.670375
External:        +0.000000
XC:             -14.021644
Entropy (-ST):   -0.002756
Local:           -0.318106
SIC:             +0.000000
--------------------------
Free energy:    -12.605538
Extrapolated:   -12.604159

Showing only first 2 kpts
 Kpt  Band  Eigenvalues  Occupancy
  0    33     -3.14990    2.00000
  0    34     -2.28759    2.00000
  0    35     -1.40680    0.00011
  0    36     -0.93747    0.00000

  1    33     -2.79156    2.00000
  1    34     -1.93474    2.00000
  1    35     -1.06034    0.00000
  1    36     -0.60157    0.00000


Fermi level: -1.50488

No gap

Forces in eV/Ang:
  0 Na    0.00000   -0.00173   -0.03477
  1 Na    0.00000    0.01384    0.01685
  2 Na    0.00000   -0.01805    0.04797
  3 Na    0.00000    0.00440   -0.01546
  4 Na    0.00000   -0.00085    0.01787
  5 Na    0.00000    0.00084   -0.01753
  6 Na    0.00000   -0.00440    0.01561
  7 Na    0.00000    0.01806   -0.04820
  8 Na    0.00000   -0.01383   -0.01723
  9 Na    0.00000    0.00172    0.03457

System changes: positions 

Initializing position-dependent things.

Density initialized from wave functions
   .--------------.  
  /|              |  
 * |              |  
 | |              |  
 | |              |  
 | |              |  
 | |              |  
 | |              |  
 | |              |  
 | |              |  
 | |              |  
 | |              |  
 | |              |  
 | |              |  
 | |              |  
 | |              |  
 | |              |  
 | |              |  
 | |              |  
 | |              |  
 | |              |  
 |Na     Na       |  
 | |              |  
 | |              |  
 | |     Na       |  
 | Na             |  
 | |              |  
 | |              |  
 | |      Na      |  
 | |              |  
 |Na              |  
 | |              |  
 | |              |  
 | |     Na       |  
 |Na              |  
 | |              |  
 | |              |  
 | Na    Na       |  
 | |              |  
 | |              |  
 | |              |  
 | |              |  
 | |              |  
 | |              |  
 | |              |  
 | |              |  
 | |              |  
 | |              |  
 | |              |  
 | |              |  
 | |              |  
 | |              |  
 | |              |  
 | |              |  
 | |              |  
 | |              |  
 | .--------------.  
 |/              /   
 *--------------*    

Positions:
   0 Na     0.000000   -0.143319   15.198014    ( 0.0000,  0.0000,  0.0000)
   1 Na     2.965040    1.371606   16.624581    ( 0.0000,  0.0000,  0.0000)
   2 Na     0.000000    2.396104   18.437493    ( 0.0000,  0.0000,  0.0000)
   3 Na     2.965040    0.001783   20.112666    ( 0.0000,  0.0000,  0.0000)
   4 Na    -0.000000    1.214696   21.818851    ( 0.0000,  0.0000,  0.0000)
   5 Na     2.965040    2.416740   23.588129    ( 0.0000,  0.0000,  0.0000)
   6 Na     0.000000   -0.001785   25.294291    ( 0.0000,  0.0000,  0.0000)
   7 Na     2.965040    1.235314   26.969546    ( 0.0000,  0.0000,  0.0000)
   8 Na    -0.000000    2.259808   28.782465    ( 0.0000,  0.0000,  0.0000)
   9 Na     2.965040    3.774732   30.208883    ( 0.0000,  0.0000,  0.0000)

Unit cell:
           periodic     x           y           z      points  spacing
  1. axis:    yes    5.930080    0.000000    0.000000    32     0.1853
  2. axis:    yes    0.000000    3.631418    0.000000    20     0.1816
  3. axis:    no     0.000000    0.000000   45.406801   240     0.1892

  Lengths:   5.930080   3.631418  45.406801
  Angles:   90.000000  90.000000  90.000000

Effective grid spacing dv^(1/3) = 0.1853

     iter     time        total  log10-change:
                         energy   eigst   dens
iter:   1 18:16:23   -12.647113   -3.15
iter:   2 18:16:24   -12.606853   -4.00  -2.06
iter:   3 18:16:25   -12.606708   -4.62  -2.88
iter:   4 18:16:26   -12.606726c  -5.10  -2.94
iter:   5 18:16:27   -12.606302c  -5.29  -2.96
iter:   6 18:16:28   -12.606301c  -5.74  -3.30
iter:   7 18:16:29   -12.606311c  -6.02  -3.48
iter:   8 18:16:30   -12.606314c  -6.39  -3.66
iter:   9 18:16:31   -12.606312c  -6.59  -3.83
iter:  10 18:16:32   -12.606310c  -6.95  -4.16c
iter:  11 18:16:32   -12.606309c  -7.39  -4.33c
iter:  12 18:16:33   -12.606309c  -7.77c -4.61c

Converged after 12 iterations.

Dipole moment: (0.000000, 0.000055, -0.000005) |e|*Ang

Energy contributions relative to reference atoms: (reference = -44186.104977)

Kinetic:        +13.430462
Potential:      -11.689920
External:        +0.000000
XC:             -14.027495
Entropy (-ST):   -0.002712
Local:           -0.318001
SIC:             +0.000000
--------------------------
Free energy:    -12.607666
Extrapolated:   -12.606309

Showing only first 2 kpts
 Kpt  Band  Eigenvalues  Occupancy
  0    33     -3.15495    2.00000
  0    34     -2.28970    2.00000
  0    35     -1.40775    0.00010
  0    36     -0.94200    0.00000

  1    33     -2.79657    2.00000
  1    34     -1.93681    2.00000
  1    35     -1.06146    0.00000
  1    36     -0.60611    0.00000


Fermi level: -1.50719

No gap

Forces in eV/Ang:
  0 Na    0.00000    0.00138   -0.02910
  1 Na    0.00000    0.01002    0.01689
  2 Na    0.00000   -0.01740    0.03324
  3 Na    0.00000    0.00618   -0.00876
  4 Na    0.00000   -0.00396    0.02582
  5 Na    0.00000    0.00395   -0.02593
  6 Na    0.00000   -0.00618    0.00875
  7 Na    0.00000    0.01741   -0.03332
  8 Na    0.00000   -0.01003   -0.01685
  9 Na    0.00000   -0.00138    0.02921

System changes: positions 

Initializing position-dependent things.

Density initialized from wave functions
   .--------------.  
  /|              |  
 * |              |  
 | |              |  
 | |              |  
 | |              |  
 | |              |  
 | |              |  
 | |              |  
 | |              |  
 | |              |  
 | |              |  
 | |              |  
 | |              |  
 | |              |  
 | |              |  
 | |              |  
 | |              |  
 | |              |  
 | |              |  
 | |              |  
 |Na     Na       |  
 | |              |  
 | |              |  
 | |     Na       |  
 | Na             |  
 | |              |  
 | |              |  
 | |      Na      |  
 | |              |  
 |Na              |  
 | |              |  
 | |              |  
 | |     Na       |  
 |Na              |  
 | |              |  
 | |              |  
 | Na    Na       |  
 | |              |  
 | |              |  
 | |              |  
 | |              |  
 | |              |  
 | |              |  
 | |              |  
 | |              |  
 | |              |  
 | |              |  
 | |              |  
 | |              |  
 | |              |  
 | |              |  
 | |              |  
 | |              |  
 | |              |  
 | |              |  
 | .--------------.  
 |/              /   
 *--------------*    

Positions:
   0 Na     0.000000   -0.156275   15.187871    ( 0.0000,  0.0000,  0.0000)
   1 Na     2.965040    1.392281   16.630491    ( 0.0000,  0.0000,  0.0000)
   2 Na     0.000000    2.384240   18.476526    ( 0.0000,  0.0000,  0.0000)
   3 Na     2.965040    0.002863   20.097117    ( 0.0000,  0.0000,  0.0000)
   4 Na    -0.000000    1.217611   21.821562    ( 0.0000,  0.0000,  0.0000)
   5 Na     2.965040    2.413832   23.585481    ( 0.0000,  0.0000,  0.0000)
   6 Na     0.000000   -0.002863   25.309889    ( 0.0000,  0.0000,  0.0000)
   7 Na     2.965040    1.247181   26.930540    ( 0.0000,  0.0000,  0.0000)
   8 Na    -0.000000    2.239133   28.776533    ( 0.0000,  0.0000,  0.0000)
   9 Na     2.965040    3.787687   30.218995    ( 0.0000,  0.0000,  0.0000)

Unit cell:
           periodic     x           y           z      points  spacing
  1. axis:    yes    5.930080    0.000000    0.000000    32     0.1853
  2. axis:    yes    0.000000    3.631418    0.000000    20     0.1816
  3. axis:    no     0.000000    0.000000   45.406801   240     0.1892

  Lengths:   5.930080   3.631418  45.406801
  Angles:   90.000000  90.000000  90.000000

Effective grid spacing dv^(1/3) = 0.1853

     iter     time        total  log10-change:
                         energy   eigst   dens
iter:   1 18:16:35   -12.855730   -2.62
iter:   2 18:16:36   -12.610466   -3.38  -1.66
iter:   3 18:16:37   -12.609965   -4.10  -2.66
iter:   4 18:16:38   -12.610501c  -4.54  -2.70
iter:   5 18:16:39   -12.608882c  -4.81  -2.73
iter:   6 18:16:40   -12.608842c  -5.39  -3.24
iter:   7 18:16:41   -12.608857c  -5.64  -3.28
iter:   8 18:16:42   -12.608864c  -5.96  -3.58
iter:   9 18:16:43   -12.608854c  -6.22  -3.71
iter:  10 18:16:44   -12.608854c  -6.69  -4.23c
iter:  11 18:16:44   -12.608854c  -7.09  -4.28c
iter:  12 18:16:45   -12.608853c  -7.45c -4.29c

Converged after 12 iterations.

Dipole moment: (0.000000, 0.000062, 0.000012) |e|*Ang

Energy contributions relative to reference atoms: (reference = -44186.104977)

Kinetic:        +13.330397
Potential:      -11.616326
External:        +0.000000
XC:             -14.003717
Entropy (-ST):   -0.002584
Local:           -0.317916
SIC:             +0.000000
--------------------------
Free energy:    -12.610145
Extrapolated:   -12.608853

Showing only first 2 kpts
 Kpt  Band  Eigenvalues  Occupancy
  0    33     -3.15929    2.00000
  0    34     -2.29525    2.00000
  0    35     -1.41360    0.00017
  0    36     -0.94567    0.00000

  1    33     -2.80083    2.00000
  1    34     -1.94219    2.00000
  1    35     -1.06745    0.00000
  1    36     -0.60981    0.00000


Fermi level: -1.50736

No gap

Forces in eV/Ang:
  0 Na    0.00000    0.00241   -0.00817
  1 Na    0.00000    0.00574    0.01067
  2 Na    0.00000   -0.01354   -0.00131
  3 Na    0.00000    0.00917    0.00572
  4 Na    0.00000   -0.01008    0.03641
  5 Na    0.00000    0.01008   -0.03610
  6 Na    0.00000   -0.00917   -0.00555
  7 Na    0.00000    0.01355    0.00115
  8 Na    0.00000   -0.00575   -0.01085
  9 Na    0.00000   -0.00244    0.00813

System changes: positions 

Initializing position-dependent things.

Density initialized from wave functions
   .--------------.  
  /|              |  
 * |              |  
 | |              |  
 | |              |  
 | |              |  
 | |              |  
 | |              |  
 | |              |  
 | |              |  
 | |              |  
 | |              |  
 | |              |  
 | |              |  
 | |              |  
 | |              |  
 | |              |  
 | |              |  
 | |              |  
 | |              |  
 | |              |  
 |Na     Na       |  
 | |              |  
 | |              |  
 | |     Na       |  
 | Na             |  
 | |              |  
 | |              |  
 | |      Na      |  
 | |              |  
 |Na              |  
 | |              |  
 | |              |  
 | |     Na       |  
 |Na              |  
 | |              |  
 | |              |  
 | Na    Na       |  
 | |              |  
 | |              |  
 | |              |  
 | |              |  
 | |              |  
 | |              |  
 | |              |  
 | |              |  
 | |              |  
 | |              |  
 | |              |  
 | |              |  
 | |              |  
 | |              |  
 | |              |  
 | |              |  
 | |              |  
 | |              |  
 | .--------------.  
 |/              /   
 *--------------*    

Positions:
   0 Na     0.000000   -0.150047   15.176281    ( 0.0000,  0.0000,  0.0000)
   1 Na     2.965040    1.386044   16.635833    ( 0.0000,  0.0000,  0.0000)
   2 Na     0.000000    2.384109   18.479825    ( 0.0000,  0.0000,  0.0000)
   3 Na     2.965040    0.003029   20.096827    ( 0.0000,  0.0000,  0.0000)
   4 Na    -0.000000    1.217529   21.823931    ( 0.0000,  0.0000,  0.0000)
   5 Na     2.965040    2.413914   23.583130    ( 0.0000,  0.0000,  0.0000)
   6 Na     0.000000   -0.003029   25.310182    ( 0.0000,  0.0000,  0.0000)
   7 Na     2.965040    1.247312   26.927219    ( 0.0000,  0.0000,  0.0000)
   8 Na    -0.000000    2.245371   28.771156    ( 0.0000,  0.0000,  0.0000)
   9 Na     2.965040    3.781459   30.230564    ( 0.0000,  0.0000,  0.0000)

Unit cell:
           periodic     x           y           z      points  spacing
  1. axis:    yes    5.930080    0.000000    0.000000    32     0.1853
  2. axis:    yes    0.000000    3.631418    0.000000    20     0.1816
  3. axis:    no     0.000000    0.000000   45.406801   240     0.1892

  Lengths:   5.930080   3.631418  45.406801
  Angles:   90.000000  90.000000  90.000000

Effective grid spacing dv^(1/3) = 0.1853

     iter     time        total  log10-change:
                         energy   eigst   dens
iter:   1 18:16:47   -12.619925   -3.97
iter:   2 18:16:48   -12.609510   -4.85  -2.36
iter:   3 18:16:49   -12.609354c  -5.45  -3.05
iter:   4 18:16:50   -12.609388c  -5.89  -3.17
iter:   5 18:16:51   -12.609136c  -6.02  -3.19
iter:   6 18:16:52   -12.609132c  -6.48  -3.61
iter:   7 18:16:53   -12.609140c  -6.72  -3.81
iter:   8 18:16:54   -12.609140c  -7.25  -3.98
iter:   9 18:16:55   -12.609137c  -7.11  -4.01c
iter:  10 18:16:55   -12.609138c  -7.63c -4.49c

Converged after 10 iterations.

Dipole moment: (0.000000, 0.000062, -0.000215) |e|*Ang

Energy contributions relative to reference atoms: (reference = -44186.104977)

Kinetic:        +13.277298
Potential:      -11.580005
External:        +0.000000
XC:             -13.987444
Entropy (-ST):   -0.002552
Local:           -0.317711
SIC:             +0.000000
--------------------------
Free energy:    -12.610414
Extrapolated:   -12.609138

Showing only first 2 kpts
 Kpt  Band  Eigenvalues  Occupancy
  0    33     -3.15736    2.00000
  0    34     -2.29687    2.00000
  0    35     -1.41633    0.00027
  0    36     -0.94386    0.00000

  1    33     -2.79891    2.00000
  1    34     -1.94376    2.00000
  1    35     -1.07010    0.00000
  1    36     -0.60800    0.00000


Fermi level: -1.50538

No gap

Forces in eV/Ang:
  0 Na    0.00000   -0.00035   -0.00025
  1 Na    0.00000    0.00722    0.00782
  2 Na    0.00000   -0.01171   -0.00918
  3 Na    0.00000    0.00931    0.00778
  4 Na    0.00000   -0.01088    0.03567
  5 Na    0.00000    0.01087   -0.03471
  6 Na    0.00000   -0.00929   -0.00708
  7 Na    0.00000    0.01172    0.00936
  8 Na    0.00000   -0.00724   -0.00789
  9 Na    0.00000    0.00033    0.00016

System changes: positions 

Initializing position-dependent things.

Density initialized from wave functions
   .--------------.  
  /|              |  
 * |              |  
 | |              |  
 | |              |  
 | |              |  
 | |              |  
 | |              |  
 | |              |  
 | |              |  
 | |              |  
 | |              |  
 | |              |  
 | |              |  
 | |              |  
 | |              |  
 | |              |  
 | |              |  
 | |              |  
 | |              |  
 | |              |  
 |Na     Na       |  
 | |              |  
 | |              |  
 | |     Na       |  
 | Na             |  
 | |              |  
 | |              |  
 | |      Na      |  
 | |              |  
 |Na              |  
 | |              |  
 | |              |  
 | |     Na       |  
 |Na              |  
 | |              |  
 | |              |  
 | Na    Na       |  
 | |              |  
 | |              |  
 | |              |  
 | |              |  
 | |              |  
 | |              |  
 | |              |  
 | |              |  
 | |              |  
 | |              |  
 | |              |  
 | |              |  
 | |              |  
 | |              |  
 | |              |  
 | |              |  
 | |              |  
 | |              |  
 | .--------------.  
 |/              /   
 *--------------*    

Positions:
   0 Na     0.000000   -0.145279   15.170798    ( 0.0000,  0.0000,  0.0000)
   1 Na     2.965040    1.380588   16.638334    ( 0.0000,  0.0000,  0.0000)
   2 Na     0.000000    2.385072   18.477651    ( 0.0000,  0.0000,  0.0000)
   3 Na     2.965040    0.003138   20.098310    ( 0.0000,  0.0000,  0.0000)
   4 Na    -0.000000    1.217046   21.825442    ( 0.0000,  0.0000,  0.0000)
   5 Na     2.965040    2.414396   23.581638    ( 0.0000,  0.0000,  0.0000)
   6 Na     0.000000   -0.003137   25.308708    ( 0.0000,  0.0000,  0.0000)
   7 Na     2.965040    1.246349   26.929383    ( 0.0000,  0.0000,  0.0000)
   8 Na    -0.000000    2.250826   28.768638    ( 0.0000,  0.0000,  0.0000)
   9 Na     2.965040    3.776691   30.236037    ( 0.0000,  0.0000,  0.0000)

Unit cell:
           periodic     x           y           z      points  spacing
  1. axis:    yes    5.930080    0.000000    0.000000    32     0.1853
  2. axis:    yes    0.000000    3.631418    0.000000    20     0.1816
  3. axis:    no     0.000000    0.000000   45.406801   240     0.1892

  Lengths:   5.930080   3.631418  45.406801
  Angles:   90.000000  90.000000  90.000000

Effective grid spacing dv^(1/3) = 0.1853

     iter     time        total  log10-change:
                         energy   eigst   dens
iter:   1 18:16:57   -12.611427   -4.44
iter:   2 18:16:58   -12.614268   -5.24  -2.71
iter:   3 18:16:59   -12.609333c  -5.84  -2.53
iter:   4 18:17:00   -12.609264c  -6.31  -3.33
iter:   5 18:17:01   -12.609222c  -6.38  -3.53
iter:   6 18:17:02   -12.609224c  -6.83  -3.90
iter:   7 18:17:03   -12.609225c  -7.10  -4.19c
iter:   8 18:17:04   -12.609225c  -7.51c -4.43c

Converged after 8 iterations.

Dipole moment: (0.000000, 0.000059, -0.000027) |e|*Ang

Energy contributions relative to reference atoms: (reference = -44186.104977)

Kinetic:        +13.250318
Potential:      -11.560615
External:        +0.000000
XC:             -13.979943
Entropy (-ST):   -0.002553
Local:           -0.317708
SIC:             +0.000000
--------------------------
Free energy:    -12.610501
Extrapolated:   -12.609225

Showing only first 2 kpts
 Kpt  Band  Eigenvalues  Occupancy
  0    33     -3.15554    2.00000
  0    34     -2.29709    2.00000
  0    35     -1.41710    0.00034
  0    36     -0.94235    0.00000

  1    33     -2.79710    2.00000
  1    34     -1.94397    2.00000
  1    35     -1.07082    0.00000
  1    36     -0.60648    0.00000


Fermi level: -1.50397

No gap

Forces in eV/Ang:
  0 Na    0.00000   -0.00208    0.00256
  1 Na    0.00000    0.00863    0.00625
  2 Na    0.00000   -0.01121   -0.00964
  3 Na    0.00000    0.00901    0.00729
  4 Na    0.00000   -0.01052    0.03319
  5 Na    0.00000    0.01052   -0.03324
  6 Na    0.00000   -0.00900   -0.00723
  7 Na    0.00000    0.01122    0.00957
  8 Na    0.00000   -0.00865   -0.00622
  9 Na    0.00000    0.00206   -0.00249

System changes: positions 

Initializing position-dependent things.

Density initialized from wave functions
   .--------------.  
  /|              |  
 * |              |  
 | |              |  
 | |              |  
 | |              |  
 | |              |  
 | |              |  
 | |              |  
 | |              |  
 | |              |  
 | |              |  
 | |              |  
 | |              |  
 | |              |  
 | |              |  
 | |              |  
 | |              |  
 | |              |  
 | |              |  
 | |              |  
 |Na     Na       |  
 | |              |  
 | |              |  
 | |     Na       |  
 | Na             |  
 | |              |  
 | |              |  
 | |      Na      |  
 | |              |  
 |Na              |  
 | |              |  
 | |              |  
 | |     Na       |  
 |Na              |  
 | |              |  
 | |              |  
 | Na    Na       |  
 | |              |  
 | |              |  
 | |              |  
 | |              |  
 | |              |  
 | |              |  
 | |              |  
 | |              |  
 | |              |  
 | |              |  
 | |              |  
 | |              |  
 | |              |  
 | |              |  
 | |              |  
 | |              |  
 | |              |  
 | |              |  
 | .--------------.  
 |/              /   
 *--------------*    

Positions:
   0 Na     0.000000   -0.142691   15.168062    ( 0.0000,  0.0000,  0.0000)
   1 Na     2.965040    1.377761   16.639779    ( 0.0000,  0.0000,  0.0000)
   2 Na     0.000000    2.385362   18.475826    ( 0.0000,  0.0000,  0.0000)
   3 Na     2.965040    0.003459   20.099458    ( 0.0000,  0.0000,  0.0000)
   4 Na    -0.000000    1.216439   21.827208    ( 0.0000,  0.0000,  0.0000)
   5 Na     2.965040    2.415002   23.579883    ( 0.0000,  0.0000,  0.0000)
   6 Na     0.000000   -0.003458   25.307569    ( 0.0000,  0.0000,  0.0000)
   7 Na     2.965040    1.246059   26.931201    ( 0.0000,  0.0000,  0.0000)
   8 Na    -0.000000    2.253653   28.767183    ( 0.0000,  0.0000,  0.0000)
   9 Na     2.965040    3.774102   30.238769    ( 0.0000,  0.0000,  0.0000)

Unit cell:
           periodic     x           y           z      points  spacing
  1. axis:    yes    5.930080    0.000000    0.000000    32     0.1853
  2. axis:    yes    0.000000    3.631418    0.000000    20     0.1816
  3. axis:    no     0.000000    0.000000   45.406801   240     0.1892

  Lengths:   5.930080   3.631418  45.406801
  Angles:   90.000000  90.000000  90.000000

Effective grid spacing dv^(1/3) = 0.1853

     iter     time        total  log10-change:
                         energy   eigst   dens
iter:   1 18:17:06   -12.609477   -4.83
iter:   2 18:17:07   -12.609405   -5.85  -3.35
iter:   3 18:17:07   -12.609394c  -6.35  -3.47
iter:   4 18:17:08   -12.609354c  -6.75  -3.53
iter:   5 18:17:09   -12.609336c  -6.92  -3.77
iter:   6 18:17:10   -12.609335c  -7.29  -4.13c
iter:   7 18:17:11   -12.609334c  -7.63c -4.45c

Converged after 7 iterations.

Dipole moment: (0.000000, 0.000057, 0.000086) |e|*Ang

Energy contributions relative to reference atoms: (reference = -44186.104977)

Kinetic:        +13.249071
Potential:      -11.561782
External:        +0.000000
XC:             -13.977754
Entropy (-ST):   -0.002565
Local:           -0.317587
SIC:             +0.000000
--------------------------
Free energy:    -12.610617
Extrapolated:   -12.609334

Showing only first 2 kpts
 Kpt  Band  Eigenvalues  Occupancy
  0    33     -3.15439    2.00000
  0    34     -2.29729    2.00000
  0    35     -1.41750    0.00037
  0    36     -0.94170    0.00000

  1    33     -2.79596    2.00000
  1    34     -1.94415    2.00000
  1    35     -1.07118    0.00000
  1    36     -0.60583    0.00000


Fermi level: -1.50333

No gap

Forces in eV/Ang:
  0 Na    0.00000   -0.00311    0.00244
  1 Na    0.00000    0.00950    0.00539
  2 Na    0.00000   -0.01095   -0.00790
  3 Na    0.00000    0.00876    0.00594
  4 Na    0.00000   -0.01001    0.03082
  5 Na    0.00000    0.01001   -0.03031
  6 Na    0.00000   -0.00875   -0.00575
  7 Na    0.00000    0.01095    0.00752
  8 Na    0.00000   -0.00950   -0.00601
  9 Na    0.00000    0.00309   -0.00281

System changes: positions 

Initializing position-dependent things.

Density initialized from wave functions
   .--------------.  
  /|              |  
 * |              |  
 | |              |  
 | |              |  
 | |              |  
 | |              |  
 | |              |  
 | |              |  
 | |              |  
 | |              |  
 | |              |  
 | |              |  
 | |              |  
 | |              |  
 | |              |  
 | |              |  
 | |              |  
 | |              |  
 | |              |  
 | |              |  
 |Na     Na       |  
 | |              |  
 | |              |  
 | |     Na       |  
 | Na             |  
 | |              |  
 | |              |  
 | |      Na      |  
 | |              |  
 |Na              |  
 | |              |  
 | |              |  
 | |     Na       |  
 |Na              |  
 | |              |  
 | |              |  
 | Na    Na       |  
 | |              |  
 | |              |  
 | |              |  
 | |              |  
 | |              |  
 | |              |  
 | |              |  
 | |              |  
 | |              |  
 | |              |  
 | |              |  
 | |              |  
 | |              |  
 | |              |  
 | |              |  
 | |              |  
 | |              |  
 | |              |  
 | .--------------.  
 |/              /   
 *--------------*    

Positions:
   0 Na     0.000000   -0.137224   15.158608    ( 0.0000,  0.0000,  0.0000)
   1 Na     2.965040    1.373633   16.645763    ( 0.0000,  0.0000,  0.0000)
   2 Na     0.000000    2.382951   18.475076    ( 0.0000,  0.0000,  0.0000)
   3 Na     2.965040    0.005789   20.101414    ( 0.0000,  0.0000,  0.0000)
   4 Na    -0.000000    1.213652   21.837226    ( 0.0000,  0.0000,  0.0000)
   5 Na     2.965040    2.417788   23.569987    ( 0.0000,  0.0000,  0.0000)
   6 Na     0.000000   -0.005784   25.305698    ( 0.0000,  0.0000,  0.0000)
   7 Na     2.965040    1.248473   26.931919    ( 0.0000,  0.0000,  0.0000)
   8 Na    -0.000000    2.257778   28.761127    ( 0.0000,  0.0000,  0.0000)
   9 Na     2.965040    3.768632   30.248184    ( 0.0000,  0.0000,  0.0000)

Unit cell:
           periodic     x           y           z      points  spacing
  1. axis:    yes    5.930080    0.000000    0.000000    32     0.1853
  2. axis:    yes    0.000000    3.631418    0.000000    20     0.1816
  3. axis:    no     0.000000    0.000000   45.406801   240     0.1892

  Lengths:   5.930080   3.631418  45.406801
  Angles:   90.000000  90.000000  90.000000

Effective grid spacing dv^(1/3) = 0.1853

     iter     time        total  log10-change:
                         energy   eigst   dens
iter:   1 18:17:13   -12.621666   -3.86
iter:   2 18:17:14   -12.610718   -4.82  -2.35
iter:   3 18:17:15   -12.610339c  -5.42  -2.89
iter:   4 18:17:16   -12.610401c  -5.68  -3.01
iter:   5 18:17:17   -12.609848c  -5.94  -3.01
iter:   6 18:17:18   -12.609847c  -6.56  -3.65
iter:   7 18:17:19   -12.609843c  -6.59  -3.78
iter:   8 18:17:20   -12.609843c  -7.08  -4.13c
iter:   9 18:17:20   -12.609843c  -7.41c -4.21c

Converged after 9 iterations.

Dipole moment: (0.000000, 0.000054, 0.000068) |e|*Ang

Energy contributions relative to reference atoms: (reference = -44186.104977)

Kinetic:        +13.174480
Potential:      -11.504245
External:        +0.000000
XC:             -13.961744
Entropy (-ST):   -0.002614
Local:           -0.317027
SIC:             +0.000000
--------------------------
Free energy:    -12.611150
Extrapolated:   -12.609843

Showing only first 2 kpts
 Kpt  Band  Eigenvalues  Occupancy
  0    33     -3.15026    2.00000
  0    34     -2.29850    2.00000
  0    35     -1.41911    0.00057
  0    36     -0.93991    0.00000

  1    33     -2.79186    2.00000
  1    34     -1.94530    2.00000
  1    35     -1.07274    0.00000
  1    36     -0.60403    0.00000


Fermi level: -1.50073

No gap

Forces in eV/Ang:
  0 Na    0.00000   -0.00482    0.00844
  1 Na    0.00000    0.01006    0.00152
  2 Na    0.00000   -0.00956   -0.00691
  3 Na    0.00000    0.00868    0.00487
  4 Na    0.00000   -0.00963    0.02177
  5 Na    0.00000    0.00964   -0.02147
  6 Na    0.00000   -0.00867   -0.00482
  7 Na    0.00000    0.00956    0.00653
  8 Na    0.00000   -0.01007   -0.00201
  9 Na    0.00000    0.00482   -0.00873

System changes: positions 

Initializing position-dependent things.

Density initialized from wave functions
   .--------------.  
  /|              |  
 * |              |  
 | |              |  
 | |              |  
 | |              |  
 | |              |  
 | |              |  
 | |              |  
 | |              |  
 | |              |  
 | |              |  
 | |              |  
 | |              |  
 | |              |  
 | |              |  
 | |              |  
 | |              |  
 | |              |  
 | |              |  
 | |              |  
 |Na     Na       |  
 | |              |  
 | |              |  
 | |     Na       |  
 | Na             |  
 | |              |  
 | |              |  
 | |      Na      |  
 | |              |  
 |Na              |  
 | |              |  
 | |              |  
 | |     Na       |  
 |Na              |  
 | |              |  
 | |              |  
 | Na    Na       |  
 | |              |  
 | |              |  
 | |              |  
 | |              |  
 | |              |  
 | |              |  
 | |              |  
 | |              |  
 | |              |  
 | |              |  
 | |              |  
 | |              |  
 | |              |  
 | |              |  
 | |              |  
 | |              |  
 | |              |  
 | |              |  
 | .--------------.  
 |/              /   
 *--------------*    

Positions:
   0 Na     0.000000   -0.137673   15.156158    ( 0.0000,  0.0000,  0.0000)
   1 Na     2.965040    1.377337   16.649736    ( 0.0000,  0.0000,  0.0000)
   2 Na     0.000000    2.377536   18.474998    ( 0.0000,  0.0000,  0.0000)
   3 Na     2.965040    0.009592   20.102926    ( 0.0000,  0.0000,  0.0000)
   4 Na    -0.000000    1.209529   21.851074    ( 0.0000,  0.0000,  0.0000)
   5 Na     2.965040    2.421909   23.556318    ( 0.0000,  0.0000,  0.0000)
   6 Na     0.000000   -0.009582   25.304324    ( 0.0000,  0.0000,  0.0000)
   7 Na     2.965040    1.253893   26.931980    ( 0.0000,  0.0000,  0.0000)
   8 Na    -0.000000    2.254070   28.757086    ( 0.0000,  0.0000,  0.0000)
   9 Na     2.965040    3.769074   30.250599    ( 0.0000,  0.0000,  0.0000)

Unit cell:
           periodic     x           y           z      points  spacing
  1. axis:    yes    5.930080    0.000000    0.000000    32     0.1853
  2. axis:    yes    0.000000    3.631418    0.000000    20     0.1816
  3. axis:    no     0.000000    0.000000   45.406801   240     0.1892

  Lengths:   5.930080   3.631418  45.406801
  Angles:   90.000000  90.000000  90.000000

Effective grid spacing dv^(1/3) = 0.1853

     iter     time        total  log10-change:
                         energy   eigst   dens
iter:   1 18:17:22   -12.622590   -3.81
iter:   2 18:17:23   -12.611390   -4.74  -2.36
iter:   3 18:17:24   -12.611230c  -5.35  -2.93
iter:   4 18:17:25   -12.610987c  -5.84  -2.98
iter:   5 18:17:26   -12.610574c  -5.68  -3.08
iter:   6 18:17:27   -12.610559c  -6.38  -3.58
iter:   7 18:17:28   -12.610553c  -6.54  -3.79
iter:   8 18:17:29   -12.610553c  -7.07  -4.01c
iter:   9 18:17:29   -12.610556c  -7.10  -4.04c
iter:  10 18:17:30   -12.610556c  -7.58c -4.42c

Converged after 10 iterations.

Dipole moment: (0.000000, 0.000050, 0.000366) |e|*Ang

Energy contributions relative to reference atoms: (reference = -44186.104977)

Kinetic:        +13.188261
Potential:      -11.517693
External:        +0.000000
XC:             -13.961894
Entropy (-ST):   -0.002701
Local:           -0.317880
SIC:             +0.000000
--------------------------
Free energy:    -12.611907
Extrapolated:   -12.610556

Showing only first 2 kpts
 Kpt  Band  Eigenvalues  Occupancy
  0    33     -3.14629    2.00000
  0    34     -2.29882    2.00000
  0    35     -1.41883    0.00067
  0    36     -0.93926    0.00000

  1    33     -2.78794    2.00000
  1    34     -1.94556    2.00000
  1    35     -1.07247    0.00000
  1    36     -0.60338    0.00000


Fermi level: -1.49881

No gap

Forces in eV/Ang:
  0 Na    0.00000   -0.00401    0.01164
  1 Na    0.00000    0.00852   -0.00067
  2 Na    0.00000   -0.00903   -0.00332
  3 Na    0.00000    0.00888    0.00153
  4 Na    0.00000   -0.00935    0.01107
  5 Na    0.00000    0.00939   -0.01196
  6 Na    0.00000   -0.00888   -0.00242
  7 Na    0.00000    0.00902    0.00275
  8 Na    0.00000   -0.00853    0.00030
  9 Na    0.00000    0.00399   -0.01173

System changes: positions 

Initializing position-dependent things.

Density initialized from wave functions
   .--------------.  
  /|              |  
 * |              |  
 | |              |  
 | |              |  
 | |              |  
 | |              |  
 | |              |  
 | |              |  
 | |              |  
 | |              |  
 | |              |  
 | |              |  
 | |              |  
 | |              |  
 | |              |  
 | |              |  
 | |              |  
 | |              |  
 | |              |  
 | |              |  
 |Na     Na       |  
 | |              |  
 | |              |  
 | |     Na       |  
 | Na             |  
 | |              |  
 | |              |  
 | |      Na      |  
 | |              |  
 |Na              |  
 | |              |  
 | |              |  
 | |     Na       |  
 |Na              |  
 | |              |  
 | |              |  
 | Na    Na       |  
 | |              |  
 | |              |  
 | |              |  
 | |              |  
 | |              |  
 | |              |  
 | |              |  
 | |              |  
 | |              |  
 | |              |  
 | |              |  
 | |              |  
 | |              |  
 | |              |  
 | |              |  
 | |              |  
 | |              |  
 | |              |  
 | .--------------.  
 |/              /   
 *--------------*    

Positions:
   0 Na     0.000000   -0.149423   15.163787    ( 0.0000,  0.0000,  0.0000)
   1 Na     2.965040    1.397736   16.652567    ( 0.0000,  0.0000,  0.0000)
   2 Na     0.000000    2.363517   18.479215    ( 0.0000,  0.0000,  0.0000)
   3 Na     2.965040    0.017780   20.103058    ( 0.0000,  0.0000,  0.0000)
   4 Na    -0.000000    1.201436   21.877903    ( 0.0000,  0.0000,  0.0000)
   5 Na     2.965040    2.430003   23.529814    ( 0.0000,  0.0000,  0.0000)
   6 Na     0.000000   -0.017759   25.304456    ( 0.0000,  0.0000,  0.0000)
   7 Na     2.965040    1.267920   26.927755    ( 0.0000,  0.0000,  0.0000)
   8 Na    -0.000000    2.233662   28.754165    ( 0.0000,  0.0000,  0.0000)
   9 Na     2.965040    3.780810   30.242928    ( 0.0000,  0.0000,  0.0000)

Unit cell:
           periodic     x           y           z      points  spacing
  1. axis:    yes    5.930080    0.000000    0.000000    32     0.1853
  2. axis:    yes    0.000000    3.631418    0.000000    20     0.1816
  3. axis:    no     0.000000    0.000000   45.406801   240     0.1892

  Lengths:   5.930080   3.631418  45.406801
  Angles:   90.000000  90.000000  90.000000

Effective grid spacing dv^(1/3) = 0.1853

     iter     time        total  log10-change:
                         energy   eigst   dens
iter:   1 18:17:32   -12.653925   -3.18
iter:   2 18:17:33   -12.624774   -4.09  -2.08
iter:   3 18:17:34   -12.622546c  -4.69  -2.32
iter:   4 18:17:35   -12.612240c  -5.25  -2.36
iter:   5 18:17:36   -12.611661c  -5.38  -2.92
iter:   6 18:17:37   -12.611630c  -5.54  -3.18
iter:   7 18:17:38   -12.611590c  -6.01  -3.27
iter:   8 18:17:39   -12.611597c  -6.29  -3.51
iter:   9 18:17:39   -12.611608c  -6.47  -3.62
iter:  10 18:17:40   -12.611607c  -6.86  -3.87
iter:  11 18:17:41   -12.611603c  -7.10  -3.93
iter:  12 18:17:42   -12.611602c  -7.38  -4.28c
iter:  13 18:17:43   -12.611604c  -7.75c -4.48c

Converged after 13 iterations.

Dipole moment: (0.000000, 0.000047, -0.000004) |e|*Ang

Energy contributions relative to reference atoms: (reference = -44186.104977)

Kinetic:        +13.245195
Potential:      -11.561194
External:        +0.000000
XC:             -13.976255
Entropy (-ST):   -0.002869
Local:           -0.317915
SIC:             +0.000000
--------------------------
Free energy:    -12.613038
Extrapolated:   -12.611604

Showing only first 2 kpts
 Kpt  Band  Eigenvalues  Occupancy
  0    33     -3.14285    2.00000
  0    34     -2.29984    2.00000
  0    35     -1.41722    0.00055
  0    36     -0.94249    0.00000

  1    33     -2.78457    2.00000
  1    34     -1.94651    2.00000
  1    35     -1.07103    0.00000
  1    36     -0.60663    0.00000


Fermi level: -1.49920

No gap

Forces in eV/Ang:
  0 Na    0.00000    0.00038    0.01133
  1 Na    0.00000    0.00386   -0.00366
  2 Na    0.00000   -0.00914    0.00722
  3 Na    0.00000    0.01031   -0.00335
  4 Na    0.00000   -0.00968   -0.00691
  5 Na    0.00000    0.00973    0.00676
  6 Na    0.00000   -0.01030    0.00325
  7 Na    0.00000    0.00913   -0.00711
  8 Na    0.00000   -0.00388    0.00371
  9 Na    0.00000   -0.00040   -0.01135

System changes: positions 

Initializing position-dependent things.

Density initialized from wave functions
   .--------------.  
  /|              |  
 * |              |  
 | |              |  
 | |              |  
 | |              |  
 | |              |  
 | |              |  
 | |              |  
 | |              |  
 | |              |  
 | |              |  
 | |              |  
 | |              |  
 | |              |  
 | |              |  
 | |              |  
 | |              |  
 | |              |  
 | |              |  
 | |              |  
 |Na     Na       |  
 | |              |  
 | |              |  
 | |     Na       |  
 | Na             |  
 | |              |  
 | |              |  
 | |      Na      |  
 | |              |  
 |Na              |  
 | |              |  
 | |              |  
 | |     Na       |  
 |Na              |  
 | |              |  
 | |              |  
 | Na    Na       |  
 | |              |  
 | |              |  
 | |              |  
 | |              |  
 | |              |  
 | |              |  
 | |              |  
 | |              |  
 | |              |  
 | |              |  
 | |              |  
 | |              |  
 | |              |  
 | |              |  
 | |              |  
 | |              |  
 | |              |  
 | |              |  
 | .--------------.  
 |/              /   
 *--------------*    

Positions:
   0 Na     0.000000   -0.165806   15.177208    ( 0.0000,  0.0000,  0.0000)
   1 Na     2.965040    1.421165   16.650309    ( 0.0000,  0.0000,  0.0000)
   2 Na     0.000000    2.352388   18.489053    ( 0.0000,  0.0000,  0.0000)
   3 Na     2.965040    0.022663   20.099141    ( 0.0000,  0.0000,  0.0000)
   4 Na    -0.000000    1.197626   21.891175    ( 0.0000,  0.0000,  0.0000)
   5 Na     2.965040    2.433817   23.516720    ( 0.0000,  0.0000,  0.0000)
   6 Na     0.000000   -0.022635   25.308538    ( 0.0000,  0.0000,  0.0000)
   7 Na     2.965040    1.279054   26.917958    ( 0.0000,  0.0000,  0.0000)
   8 Na    -0.000000    2.210227   28.756424    ( 0.0000,  0.0000,  0.0000)
   9 Na     2.965040    3.797184   30.229509    ( 0.0000,  0.0000,  0.0000)

Unit cell:
           periodic     x           y           z      points  spacing
  1. axis:    yes    5.930080    0.000000    0.000000    32     0.1853
  2. axis:    yes    0.000000    3.631418    0.000000    20     0.1816
  3. axis:    no     0.000000    0.000000   45.406801   240     0.1892

  Lengths:   5.930080   3.631418  45.406801
  Angles:   90.000000  90.000000  90.000000

Effective grid spacing dv^(1/3) = 0.1853

     iter     time        total  log10-change:
                         energy   eigst   dens
iter:   1 18:17:45   -12.629858   -3.33
iter:   2 18:17:46   -12.612080   -4.26  -2.26
iter:   3 18:17:47   -12.612106c  -4.86  -3.11
iter:   4 18:17:48   -12.612064c  -5.35  -3.13
iter:   5 18:17:49   -12.612067c  -5.43  -3.16
iter:   6 18:17:49   -12.612065c  -5.93  -3.47
iter:   7 18:17:50   -12.612065c  -6.14  -3.55
iter:   8 18:17:51   -12.612067c  -6.50  -3.82
iter:   9 18:17:52   -12.612072c  -6.70  -3.94
iter:  10 18:17:53   -12.612072c  -7.16  -4.31c
iter:  11 18:17:54   -12.612072c  -7.53c -4.27c

Converged after 11 iterations.

Dipole moment: (0.000000, 0.000040, -0.000063) |e|*Ang

Energy contributions relative to reference atoms: (reference = -44186.104977)

Kinetic:        +13.331629
Potential:      -11.626566
External:        +0.000000
XC:             -13.997740
Entropy (-ST):   -0.002929
Local:           -0.317930
SIC:             +0.000000
--------------------------
Free energy:    -12.613536
Extrapolated:   -12.612072

Showing only first 2 kpts
 Kpt  Band  Eigenvalues  Occupancy
  0    33     -3.14408    2.00000
  0    34     -2.30013    2.00000
  0    35     -1.41509    0.00035
  0    36     -0.94688    0.00000

  1    33     -2.78583    2.00000
  1    34     -1.94677    2.00000
  1    35     -1.06910    0.00000
  1    36     -0.61104    0.00000


Fermi level: -1.50163

No gap

[...]
  1. axis:    yes    5.930080    0.000000    0.000000    32     0.1853
  2. axis:    yes    0.000000    3.631418    0.000000    20     0.1816
  3. axis:    no     0.000000    0.000000   45.406801   240     0.1892

  Lengths:   5.930080   3.631418  45.406801
  Angles:   90.000000  90.000000  90.000000

Effective grid spacing dv^(1/3) = 0.1853

     iter     time        total  log10-change:
                         energy   eigst   dens
iter:   1 18:18:58   -12.616531   -4.04
iter:   2 18:18:59   -12.616103   -5.10  -2.80
iter:   3 18:18:59   -12.615405c  -5.70  -2.88
iter:   4 18:19:00   -12.615124c  -6.20  -3.10
iter:   5 18:19:01   -12.615049c  -6.08  -3.30
iter:   6 18:19:02   -12.615050c  -6.44  -3.64
iter:   7 18:19:03   -12.615053c  -6.79  -3.83
iter:   8 18:19:04   -12.615053c  -7.22  -3.95
iter:   9 18:19:05   -12.615053c  -7.17  -4.03c
iter:  10 18:19:06   -12.615053c  -7.58c -4.37c

Converged after 10 iterations.

Dipole moment: (0.000000, 0.000531, 0.000059) |e|*Ang

Energy contributions relative to reference atoms: (reference = -44186.104977)

Kinetic:        +13.606394
Potential:      -11.824661
External:        +0.000000
XC:             -14.077561
Entropy (-ST):   -0.002994
Local:           -0.317728
SIC:             +0.000000
--------------------------
Free energy:    -12.616550
Extrapolated:   -12.615053

Showing only first 2 kpts
 Kpt  Band  Eigenvalues  Occupancy
  0    33     -3.15458    2.00000
  0    34     -2.30006    2.00000
  0    35     -1.40721    0.00005
  0    36     -0.96536    0.00000

  1    33     -2.79632    2.00000
  1    34     -1.94682    2.00000
  1    35     -1.06177    0.00000
  1    36     -0.62961    0.00000


Fermi level: -1.51398

No gap

Forces in eV/Ang:
  0 Na    0.00000    0.00490    0.00298
  1 Na    0.00000    0.00385   -0.00190
  2 Na    0.00000    0.00279    0.00806
  3 Na    0.00000   -0.00660   -0.01167
  4 Na    0.00000    0.00241    0.00490
  5 Na    0.00000   -0.00243   -0.00647
  6 Na    0.00000    0.00662    0.01087
  7 Na    0.00000   -0.00274   -0.00813
  8 Na    0.00000   -0.00385    0.00274
  9 Na    0.00000   -0.00495   -0.00202

System changes: positions 

Initializing position-dependent things.

Density initialized from wave functions
   .--------------.  
  /|              |  
 * |              |  
 | |              |  
 | |              |  
 | |              |  
 | |              |  
 | |              |  
 | |              |  
 | |              |  
 | |              |  
 | |              |  
 | |              |  
 | |              |  
 | |              |  
 | |              |  
 | |              |  
 | |              |  
 | |              |  
 | |              |  
 | |              |  
 |Na     Na       |  
 | |              |  
 | |              |  
 | |     Na       |  
 | Na             |  
 | |              |  
 | |              |  
 | |      Na      |  
 | |              |  
 |Na              |  
 | |              |  
 | |              |  
 | |     Na       |  
 |Na              |  
 | |              |  
 | |              |  
 | Na    Na       |  
 | |              |  
 | |              |  
 | |              |  
 | |              |  
 | |              |  
 | |              |  
 | |              |  
 | |              |  
 | |              |  
 | |              |  
 | |              |  
 | |              |  
 | |              |  
 | |              |  
 | |              |  
 | |              |  
 | |              |  
 | |              |  
 | .--------------.  
 |/              /   
 *--------------*    

Positions:
   0 Na     0.000000   -0.155183   15.223387    ( 0.0000,  0.0000,  0.0000)
   1 Na     2.965040    1.447495   16.648803    ( 0.0000,  0.0000,  0.0000)
   2 Na    -0.000000    2.286906   18.527127    ( 0.0000,  0.0000,  0.0000)
   3 Na     2.965040    0.083561   20.085473    ( 0.0000,  0.0000,  0.0000)
   4 Na    -0.000000    1.138382   21.902427    ( 0.0000,  0.0000,  0.0000)
   5 Na     2.965040    2.493306   23.505481    ( 0.0000,  0.0000,  0.0000)
   6 Na     0.000000   -0.083493   25.322430    ( 0.0000,  0.0000,  0.0000)
   7 Na     2.965040    1.344506   26.880600    ( 0.0000,  0.0000,  0.0000)
   8 Na    -0.000000    2.183725   28.758684    ( 0.0000,  0.0000,  0.0000)
   9 Na     2.965040    3.786455   30.183642    ( 0.0000,  0.0000,  0.0000)

Unit cell:
           periodic     x           y           z      points  spacing
  1. axis:    yes    5.930080    0.000000    0.000000    32     0.1853
  2. axis:    yes    0.000000    3.631418    0.000000    20     0.1816
  3. axis:    no     0.000000    0.000000   45.406801   240     0.1892

  Lengths:   5.930080   3.631418  45.406801
  Angles:   90.000000  90.000000  90.000000

Effective grid spacing dv^(1/3) = 0.1853

     iter     time        total  log10-change:
                         energy   eigst   dens
iter:   1 18:19:08   -12.618228   -3.90
iter:   2 18:19:08   -12.618968   -4.90  -2.67
iter:   3 18:19:09   -12.615475c  -5.53  -2.59
iter:   4 18:19:10   -12.615212c  -6.05  -3.08
iter:   5 18:19:11   -12.615146c  -5.98  -3.26
iter:   6 18:19:12   -12.615149c  -6.34  -3.58
iter:   7 18:19:13   -12.615150c  -6.76  -3.72
iter:   8 18:19:14   -12.615152c  -7.06  -3.80
iter:   9 18:19:15   -12.615154c  -7.15  -3.91
iter:  10 18:19:16   -12.615153c  -7.39  -4.11c
iter:  11 18:19:17   -12.615153c  -7.66c -4.30c

Converged after 11 iterations.

Dipole moment: (0.000000, 0.000449, -0.000395) |e|*Ang

Energy contributions relative to reference atoms: (reference = -44186.104977)

Kinetic:        +13.556733
Potential:      -11.788571
External:        +0.000000
XC:             -14.063992
Entropy (-ST):   -0.002964
Local:           -0.317841
SIC:             +0.000000
--------------------------
Free energy:    -12.616635
Extrapolated:   -12.615153

Showing only first 2 kpts
 Kpt  Band  Eigenvalues  Occupancy
  0    33     -3.15450    2.00000
  0    34     -2.30087    2.00000
  0    35     -1.40907    0.00007
  0    36     -0.96358    0.00000

  1    33     -2.79622    2.00000
  1    34     -1.94759    2.00000
  1    35     -1.06360    0.00000
  1    36     -0.62783    0.00000


Fermi level: -1.51233

No gap

Forces in eV/Ang:
  0 Na    0.00000    0.00594    0.00821
  1 Na    0.00000    0.00205   -0.00227
  2 Na    0.00000    0.00152    0.00003
  3 Na    0.00000   -0.00380   -0.00647
  4 Na    0.00000   -0.00081    0.00753
  5 Na    0.00000    0.00082   -0.00703
  6 Na    0.00000    0.00379    0.00704
  7 Na    0.00000   -0.00144    0.00046
  8 Na    0.00000   -0.00207    0.00299
  9 Na    0.00000   -0.00597   -0.00763

System changes: positions 

Initializing position-dependent things.

Density initialized from wave functions
   .--------------.  
  /|              |  
 * |              |  
 | |              |  
 | |              |  
 | |              |  
 | |              |  
 | |              |  
 | |              |  
 | |              |  
 | |              |  
 | |              |  
 | |              |  
 | |              |  
 | |              |  
 | |              |  
 | |              |  
 | |              |  
 | |              |  
 | |              |  
 | |              |  
 |Na     Na       |  
 | |              |  
 | |              |  
 | |     Na       |  
 | Na             |  
 | |              |  
 | |              |  
 | |      Na      |  
 | |              |  
 |Na              |  
 | |              |  
 | |              |  
 | |     Na       |  
 |Na              |  
 | |              |  
 | |              |  
 | Na    Na       |  
 | |              |  
 | |              |  
 | |              |  
 | |              |  
 | |              |  
 | |              |  
 | |              |  
 | |              |  
 | |              |  
 | |              |  
 | |              |  
 | |              |  
 | |              |  
 | |              |  
 | |              |  
 | |              |  
 | |              |  
 | |              |  
 | .--------------.  
 |/              /   
 *--------------*    

Positions:
   0 Na     0.000000   -0.153927   15.228191    ( 0.0000,  0.0000,  0.0000)
   1 Na     2.965040    1.450133   16.648929    ( 0.0000,  0.0000,  0.0000)
   2 Na    -0.000000    2.280146   18.529291    ( 0.0000,  0.0000,  0.0000)
   3 Na     2.965040    0.089961   20.084914    ( 0.0000,  0.0000,  0.0000)
   4 Na    -0.000000    1.131905   21.905764    ( 0.0000,  0.0000,  0.0000)
   5 Na     2.965040    2.499805   23.502189    ( 0.0000,  0.0000,  0.0000)
   6 Na     0.000000   -0.089887   25.323041    ( 0.0000,  0.0000,  0.0000)
   7 Na     2.965040    1.351265   26.878502    ( 0.0000,  0.0000,  0.0000)
   8 Na    -0.000000    2.181069   28.758618    ( 0.0000,  0.0000,  0.0000)
   9 Na     2.965040    3.785188   30.178862    ( 0.0000,  0.0000,  0.0000)

Unit cell:
           periodic     x           y           z      points  spacing
  1. axis:    yes    5.930080    0.000000    0.000000    32     0.1853
  2. axis:    yes    0.000000    3.631418    0.000000    20     0.1816
  3. axis:    no     0.000000    0.000000   45.406801   240     0.1892

  Lengths:   5.930080   3.631418  45.406801
  Angles:   90.000000  90.000000  90.000000

Effective grid spacing dv^(1/3) = 0.1853

     iter     time        total  log10-change:
                         energy   eigst   dens
iter:   1 18:19:19   -12.619480   -4.26
iter:   2 18:19:19   -12.621888   -5.05  -2.60
iter:   3 18:19:20   -12.615350c  -5.67  -2.46
iter:   4 18:19:21   -12.615209c  -6.28  -3.26
iter:   5 18:19:22   -12.615208c  -6.41  -3.58
iter:   6 18:19:23   -12.615207c  -7.02  -3.81
iter:   7 18:19:24   -12.615206c  -7.01  -3.86
iter:   8 18:19:25   -12.615205c  -7.24  -4.12c
iter:   9 18:19:26   -12.615205c  -7.59c -4.31c

Converged after 9 iterations.

Dipole moment: (0.000000, 0.000502, 0.000028) |e|*Ang

Energy contributions relative to reference atoms: (reference = -44186.104977)

Kinetic:        +13.618118
Potential:      -11.838354
External:        +0.000000
XC:             -14.075302
Entropy (-ST):   -0.002983
Local:           -0.318176
SIC:             +0.000000
--------------------------
Free energy:    -12.616697
Extrapolated:   -12.615205

Showing only first 2 kpts
 Kpt  Band  Eigenvalues  Occupancy
  0    33     -3.15516    2.00000
  0    34     -2.30118    2.00000
  0    35     -1.40854    0.00005
  0    36     -0.96560    0.00000

  1    33     -2.79689    2.00000
  1    34     -1.94790    2.00000
  1    35     -1.06312    0.00000
  1    36     -0.62986    0.00000


Fermi level: -1.51380

No gap

Forces in eV/Ang:
  0 Na    0.00000    0.00591    0.00539
  1 Na    0.00000    0.00209   -0.00238
  2 Na    0.00000    0.00262    0.00241
  3 Na    0.00000   -0.00525   -0.00898
  4 Na    0.00000    0.00041    0.00516
  5 Na    0.00000   -0.00040   -0.00596
  6 Na    0.00000    0.00525    0.00855
  7 Na    0.00000   -0.00257   -0.00249
  8 Na    0.00000   -0.00208    0.00286
  9 Na    0.00000   -0.00596   -0.00478

System changes: positions 

Initializing position-dependent things.

Density initialized from wave functions
   .--------------.  
  /|              |  
 * |              |  
 | |              |  
 | |              |  
 | |              |  
 | |              |  
 | |              |  
 | |              |  
 | |              |  
 | |              |  
 | |              |  
 | |              |  
 | |              |  
 | |              |  
 | |              |  
 | |              |  
 | |              |  
 | |              |  
 | |              |  
 | |              |  
 |Na     Na       |  
 | |              |  
 | |              |  
 | |     Na       |  
 | Na             |  
 | |              |  
 | |              |  
 | |      Na      |  
 | |              |  
 |Na              |  
 | |              |  
 | |              |  
 | |     Na       |  
 |Na              |  
 | |              |  
 | |              |  
 | Na    Na       |  
 | |              |  
 | |              |  
 | |              |  
 | |              |  
 | |              |  
 | |              |  
 | |              |  
 | |              |  
 | |              |  
 | |              |  
 | |              |  
 | |              |  
 | |              |  
 | |              |  
 | |              |  
 | |              |  
 | |              |  
 | |              |  
 | .--------------.  
 |/              /   
 *--------------*    

Positions:
   0 Na     0.000000   -0.155157   15.231219    ( 0.0000,  0.0000,  0.0000)
   1 Na     2.965040    1.454505   16.649005    ( 0.0000,  0.0000,  0.0000)
   2 Na    -0.000000    2.275356   18.533642    ( 0.0000,  0.0000,  0.0000)
   3 Na     2.965040    0.093375   20.083087    ( 0.0000,  0.0000,  0.0000)
   4 Na    -0.000000    1.128655   21.908503    ( 0.0000,  0.0000,  0.0000)
   5 Na     2.965040    2.503068   23.499481    ( 0.0000,  0.0000,  0.0000)
   6 Na     0.000000   -0.093299   25.324904    ( 0.0000,  0.0000,  0.0000)
   7 Na     2.965040    1.356057   26.874187    ( 0.0000,  0.0000,  0.0000)
   8 Na    -0.000000    2.176688   28.758578    ( 0.0000,  0.0000,  0.0000)
   9 Na     2.965040    3.786410   30.175858    ( 0.0000,  0.0000,  0.0000)

Unit cell:
           periodic     x           y           z      points  spacing
  1. axis:    yes    5.930080    0.000000    0.000000    32     0.1853
  2. axis:    yes    0.000000    3.631418    0.000000    20     0.1816
  3. axis:    no     0.000000    0.000000   45.406801   240     0.1892

  Lengths:   5.930080   3.631418  45.406801
  Angles:   90.000000  90.000000  90.000000

Effective grid spacing dv^(1/3) = 0.1853

     iter     time        total  log10-change:
                         energy   eigst   dens
iter:   1 18:19:28   -12.618923   -4.30
iter:   2 18:19:29   -12.616086   -5.10  -2.61
iter:   3 18:19:29   -12.616052c  -5.67  -2.91
iter:   4 18:19:30   -12.615248c  -6.21  -2.92
iter:   5 18:19:31   -12.615249c  -6.53  -3.73
iter:   6 18:19:32   -12.615249c  -7.04  -3.91
iter:   7 18:19:33   -12.615250c  -7.08  -3.96
iter:   8 18:19:34   -12.615249c  -7.43c -4.28c

Converged after 8 iterations.

Dipole moment: (0.000000, 0.000534, 0.000114) |e|*Ang

Energy contributions relative to reference atoms: (reference = -44186.104977)

Kinetic:        +13.631646
Potential:      -11.847912
External:        +0.000000
XC:             -14.079393
Entropy (-ST):   -0.002987
Local:           -0.318097
SIC:             +0.000000
--------------------------
Free energy:    -12.616743
Extrapolated:   -12.615249

Showing only first 2 kpts
 Kpt  Band  Eigenvalues  Occupancy
  0    33     -3.15580    2.00000
  0    34     -2.30152    2.00000
  0    35     -1.40834    0.00005
  0    36     -0.96694    0.00000

  1    33     -2.79752    2.00000
  1    34     -1.94823    2.00000
  1    35     -1.06298    0.00000
  1    36     -0.63121    0.00000


Fermi level: -1.51450

No gap

Forces in eV/Ang:
  0 Na    0.00000    0.00654    0.00558
  1 Na    0.00000    0.00162   -0.00368
  2 Na    0.00000    0.00345    0.00025
  3 Na    0.00000   -0.00586   -0.00745
  4 Na    0.00000    0.00053    0.00663
  5 Na    0.00000   -0.00053   -0.00578
  6 Na    0.00000    0.00586    0.00753
  7 Na    0.00000   -0.00338   -0.00106
  8 Na    0.00000   -0.00162    0.00276
  9 Na    0.00000   -0.00659   -0.00596

Timing:                                      incl.     excl.
-------------------------------------------------------------------
Density initialized from wave functions:     3.523     3.413   0.5% |
 Symmetrize density:                         0.110     0.110   0.0% |
Forces:                                     21.468    21.468   3.2% ||
Hamiltonian:                                 8.620     0.032   0.0% |
 Atomic:                                     1.454     1.454   0.2% |
  XC Correction:                             0.000     0.000   0.0% |
 Calculate atomic Hamiltonians:              2.114     2.114   0.3% |
 Communicate:                                0.002     0.002   0.0% |
 Initialize Hamiltonian:                     0.000     0.000   0.0% |
 Poisson:                                    0.056     0.056   0.0% |
 XC 3D grid:                                 4.962     4.962   0.7% |
LCAO initialization:                         0.591     0.008   0.0% |
 LCAO eigensolver:                           0.188     0.000   0.0% |
  Calculate projections:                     0.000     0.000   0.0% |
  DenseAtomicCorrection:                     0.000     0.000   0.0% |
  Distribute overlap matrix:                 0.000     0.000   0.0% |
  Orbital Layouts:                           0.002     0.002   0.0% |
  Potential matrix:                          0.185     0.185   0.0% |
  Sum over cells:                            0.000     0.000   0.0% |
 LCAO to grid:                               0.354     0.354   0.1% |
 Set positions (LCAO WFS):                   0.041     0.009   0.0% |
  Basic WFS set positions:                   0.000     0.000   0.0% |
  Basis functions set positions:             0.000     0.000   0.0% |
  P tci:                                     0.013     0.013   0.0% |
  ST tci:                                    0.013     0.013   0.0% |
  mktci:                                     0.006     0.006   0.0% |
PWDescriptor:                                0.543     0.543   0.1% |
Redistribute:                                0.010     0.010   0.0% |
SCF-cycle:                                 245.807     4.438   0.7% |
 Davidson:                                 127.184    37.549   5.7% |-|
  Apply H:                                  15.837    15.277   2.3% ||
   HMM T:                                    0.560     0.560   0.1% |
  Subspace diag:                            16.246     0.025   0.0% |
   calc_h_matrix:                           12.173     4.299   0.6% |
    Apply H:                                 7.874     7.602   1.1% |
     HMM T:                                  0.272     0.272   0.0% |
   diagonalize:                              0.222     0.222   0.0% |
   rotate_psi:                               3.826     3.826   0.6% |
  calc. matrices:                           42.434    26.567   4.0% |-|
   Apply H:                                 15.866    15.332   2.3% ||
    HMM T:                                   0.535     0.535   0.1% |
  diagonalize:                               1.811     1.811   0.3% |
  rotate_psi:                               13.307    13.307   2.0% ||
 Density:                                   32.469     0.004   0.0% |
  Atomic density matrices:                   0.224     0.224   0.0% |
  Mix:                                      26.792    26.792   4.0% |-|
  Multipole moments:                         0.028     0.028   0.0% |
  Pseudo density:                            5.421     4.346   0.7% |
   Symmetrize density:                       1.074     1.074   0.2% |
 Hamiltonian:                               80.362     0.291   0.0% |
  Atomic:                                   12.623    12.622   1.9% ||
   XC Correction:                            0.001     0.001   0.0% |
  Calculate atomic Hamiltonians:            21.760    21.760   3.3% ||
  Communicate:                               0.014     0.014   0.0% |
  Poisson:                                   0.523     0.523   0.1% |
  XC 3D grid:                               45.151    45.151   6.8% |--|
 Orthonormalize:                             1.354     0.004   0.0% |
  calc_s_matrix:                             0.239     0.239   0.0% |
  inverse-cholesky:                          0.022     0.022   0.0% |
  projections:                               0.710     0.710   0.1% |
  rotate_psi_s:                              0.379     0.379   0.1% |
Set symmetry:                                0.001     0.001   0.0% |
Other:                                     382.092   382.092  57.7% |----------------------|
-------------------------------------------------------------------
Total:                                               662.657 100.0%

Memory usage: 884.27 MiB
Date: Wed Feb 26 18:25:46 2025
