
  ___ ___ ___ _ _ _  
 |   |   |_  | | | | 
 | | | | | . | | | | 
 |__ |  _|___|_____|  25.1.0
 |___|_|             

User:   zoe@Zoes-MacBook-Air.local
Date:   Tue Feb  4 18:51:31 2025
Arch:   arm64
Pid:    81345
CWD:    /Users/zoe/Documents/Python/TIF320_Computitional_molecular_physics
Python: 3.12.2
gpaw:   /opt/anaconda3/envs/tif320env/lib/python3.12/site-packages/gpaw
_gpaw:  /opt/anaconda3/envs/tif320env/lib/python3.12/site-packages/
        _gpaw.cpython-312-darwin.so
ase:    /opt/anaconda3/envs/tif320env/lib/python3.12/site-packages/ase (version 3.24.0)
numpy:  /opt/anaconda3/envs/tif320env/lib/python3.12/site-packages/numpy (version 2.0.1)
scipy:  /opt/anaconda3/envs/tif320env/lib/python3.12/site-packages/scipy (version 1.15.1)
libxc:  7.0.0
units:  Angstrom and eV
cores: 1
OpenMP: False
OMP_NUM_THREADS: 1

Input parameters:
  kpts: [8 8 8]
  mode: {ecut: 400.0,
         name: pw}
  xc: PBE

System changes: positions, numbers, cell, pbc, initial_charges, initial_magmoms 

Initialize ...

species:
  Al:
    name: Aluminium
    id: 0292cae29f5d6237e50f6abdd43a7bdd
    Z: 13.0
    valence: 3
    core: 10
    charge: 0.0
    file: /opt/anaconda3/envs/tif320env/gpaw-setups/gpaw-setups-24.11.0/Al.PBE.gz
    compensation charges: {type: gauss,
                           rc: 0.34,
                           lmax: 2}
    cutoffs: {filter: 1.91,
              core: 2.36}
    projectors:
      #              energy  rcut
      - 3s(2.00)    -7.753   1.085
      - 3p(1.00)    -2.712   1.085
      -  s          19.459   1.085
      -  p          24.499   1.085
      -  d           0.000   1.085
  
    # Using partial waves for Al as LCAO basis

Reference energy: -13206.846530  # eV

Spin-paired calculation

Convergence criteria:
 Maximum [total energy] change in last 3 cyles: 0.0005 eV / valence electron
 Maximum integral of absolute [dens]ity change: 0.0001 electrons / valence electron
 Maximum integral of absolute [eigenst]ate change: 4e-08 eV^2 / valence electron
 Maximum number of scf [iter]ations: 333
 (Square brackets indicate name in SCF output, whereas a 'c' in
 the SCF output indicates the quantity has converged.)

Symmetries present (total): 48

  ( 1  0  0)  ( 1  0  0)  ( 1  0  0)  ( 1  0  0)  ( 1  0  0)  ( 1  0  0)
  ( 0  1  0)  ( 0  1  0)  ( 0  0  1)  ( 0  0  1)  ( 0  0 -1)  ( 0  0 -1)
  ( 0  0  1)  ( 0  0 -1)  ( 0  1  0)  ( 0 -1  0)  ( 0  1  0)  ( 0 -1  0)

  ( 1  0  0)  ( 1  0  0)  ( 0  1  0)  ( 0  1  0)  ( 0  1  0)  ( 0  1  0)
  ( 0 -1  0)  ( 0 -1  0)  ( 1  0  0)  ( 1  0  0)  ( 0  0  1)  ( 0  0  1)
  ( 0  0  1)  ( 0  0 -1)  ( 0  0  1)  ( 0  0 -1)  ( 1  0  0)  (-1  0  0)

  ( 0  1  0)  ( 0  1  0)  ( 0  1  0)  ( 0  1  0)  ( 0  0  1)  ( 0  0  1)
  ( 0  0 -1)  ( 0  0 -1)  (-1  0  0)  (-1  0  0)  ( 1  0  0)  ( 1  0  0)
  ( 1  0  0)  (-1  0  0)  ( 0  0  1)  ( 0  0 -1)  ( 0  1  0)  ( 0 -1  0)

  ( 0  0  1)  ( 0  0  1)  ( 0  0  1)  ( 0  0  1)  ( 0  0  1)  ( 0  0  1)
  ( 0  1  0)  ( 0  1  0)  ( 0 -1  0)  ( 0 -1  0)  (-1  0  0)  (-1  0  0)
  ( 1  0  0)  (-1  0  0)  ( 1  0  0)  (-1  0  0)  ( 0  1  0)  ( 0 -1  0)

  ( 0  0 -1)  ( 0  0 -1)  ( 0  0 -1)  ( 0  0 -1)  ( 0  0 -1)  ( 0  0 -1)
  ( 1  0  0)  ( 1  0  0)  ( 0  1  0)  ( 0  1  0)  ( 0 -1  0)  ( 0 -1  0)
  ( 0  1  0)  ( 0 -1  0)  ( 1  0  0)  (-1  0  0)  ( 1  0  0)  (-1  0  0)

  ( 0  0 -1)  ( 0  0 -1)  ( 0 -1  0)  ( 0 -1  0)  ( 0 -1  0)  ( 0 -1  0)
  (-1  0  0)  (-1  0  0)  ( 1  0  0)  ( 1  0  0)  ( 0  0  1)  ( 0  0  1)
  ( 0  1  0)  ( 0 -1  0)  ( 0  0  1)  ( 0  0 -1)  ( 1  0  0)  (-1  0  0)

  ( 0 -1  0)  ( 0 -1  0)  ( 0 -1  0)  ( 0 -1  0)  (-1  0  0)  (-1  0  0)
  ( 0  0 -1)  ( 0  0 -1)  (-1  0  0)  (-1  0  0)  ( 0  1  0)  ( 0  1  0)
  ( 1  0  0)  (-1  0  0)  ( 0  0  1)  ( 0  0 -1)  ( 0  0  1)  ( 0  0 -1)

  (-1  0  0)  (-1  0  0)  (-1  0  0)  (-1  0  0)  (-1  0  0)  (-1  0  0)
  ( 0  0  1)  ( 0  0  1)  ( 0  0 -1)  ( 0  0 -1)  ( 0 -1  0)  ( 0 -1  0)
  ( 0  1  0)  ( 0 -1  0)  ( 0  1  0)  ( 0 -1  0)  ( 0  0  1)  ( 0  0 -1)

512 k-points: 8 x 8 x 8 Monkhorst-Pack grid
20 k-points in the irreducible part of the Brillouin zone
       k-points in crystal coordinates                weights
   0:     0.06250000    0.06250000    0.06250000          8/512
   1:     0.18750000    0.06250000    0.06250000         24/512
   2:     0.18750000    0.18750000    0.06250000         24/512
   3:     0.18750000    0.18750000    0.18750000          8/512
   4:     0.31250000    0.06250000    0.06250000         24/512
   5:     0.31250000    0.18750000    0.06250000         48/512
   6:     0.31250000    0.18750000    0.18750000         24/512
   7:     0.31250000    0.31250000    0.06250000         24/512
   8:     0.31250000    0.31250000    0.18750000         24/512
   9:     0.31250000    0.31250000    0.31250000          8/512
          ...
  19:     0.43750000    0.43750000    0.43750000          8/512

Wave functions: Plane wave expansion
  Cutoff energy: 400.000 eV
  Number of coefficients (min, max): 438, 455
  Pulay-stress correction: 0.000000 eV/Ang^3 (de/decut=0.000000)
  Using Numpy's FFT
  ScaLapack parameters: grid=1x1, blocksize=None
  Wavefunction extrapolation:
    Improved wavefunction reuse through dual PAW basis 

Occupation numbers: Fermi-Dirac:
  width: 0.1000  # eV
 

Eigensolver
   Davidson(niter=2) 

Densities:
  Coarse grid: 14*14*14 grid
  Fine grid: 28*28*28 grid
  Total Charge: 0.000000 

Density mixing:
  Method: separate
  Backend: pulay
  Linear mixing parameter: 0.05
  old densities: 5
  Damping of long wavelength oscillations: 50 

Hamiltonian:
  XC and Coulomb potentials evaluated on a 28*28*28 grid
  Using the PBE Exchange-Correlation functional
  External potential:
    NoExternalPotential
 

XC parameters: PBE with 2 nearest neighbor stencil

Memory estimate:
  Process memory now: 242.42 MiB
  Calculator: 4.05 MiB
    Density: 1.22 MiB
      Arrays: 0.54 MiB
      Localized functions: 0.47 MiB
      Mixer: 0.21 MiB
    Hamiltonian: 0.37 MiB
      Arrays: 0.36 MiB
      XC: 0.00 MiB
      Poisson: 0.00 MiB
      vbar: 0.01 MiB
    Wavefunctions: 2.47 MiB
      Arrays psit_nG: 1.11 MiB
      Eigensolver: 0.10 MiB
      Projections: 0.06 MiB
      Projectors: 0.95 MiB
      PW-descriptor: 0.24 MiB

Total number of cores used: 1

Number of atoms: 2
Number of atomic orbitals: 8
Number of bands in calculation: 8
Number of valence electrons: 6
Bands to converge: occupied

... initialized

Initializing position-dependent things.

Density initialized from atomic densities
Creating initial wave functions:
  8 bands from LCAO basis set

   .------.  
  /|      |  
 * |      |  
 | | Al   |  
 | .------.  
 |/      /   
 Al-----*    

Positions:
   0 Al     0.000000    0.000000    0.000000    ( 0.0000,  0.0000,  0.0000)
   1 Al     1.450497    1.450497    1.450497    ( 0.0000,  0.0000,  0.0000)

Unit cell:
           periodic     x           y           z      points  spacing
  1. axis:    yes    2.900994    0.000000    0.000000    14     0.2072
  2. axis:    yes    0.000000    2.900994    0.000000    14     0.2072
  3. axis:    yes    0.000000    0.000000    2.900994    14     0.2072

  Lengths:   2.900994   2.900994   2.900994
  Angles:   90.000000  90.000000  90.000000

Effective grid spacing dv^(1/3) = 0.2072

     iter     time        total  log10-change:
                         energy   eigst   dens
iter:   1 18:51:31    -6.219238
iter:   2 18:51:31    -6.225760   -2.48  -0.96
iter:   3 18:51:31    -6.262797   -1.74  -0.97
iter:   4 18:51:32    -6.266416   -2.54  -1.08
iter:   5 18:51:32    -6.267789   -5.47  -2.27
iter:   6 18:51:32    -6.266956c  -5.34  -2.03
iter:   7 18:51:32    -6.266957c  -6.92  -3.40
iter:   8 18:51:32    -6.266957c  -8.95c -3.63
iter:   9 18:51:32    -6.266956c  -7.72c -3.58
iter:  10 18:51:33    -6.266955c  -8.36c -3.57
iter:  11 18:51:33    -6.266955c -10.36c -4.78c

Converged after 11 iterations.

Dipole moment: (-0.000000, -0.000000, -0.000000) |e|*Ang

Energy contributions relative to reference atoms: (reference = -13206.846530)

Kinetic:        +35.136169
Potential:      -24.175890
External:        +0.000000
XC:             -17.180464
Entropy (-ST):   -0.018049
Local:           -0.037746
SIC:             +0.000000
--------------------------
Free energy:     -6.275980
Extrapolated:    -6.266955

Showing only first 2 kpts
 Kpt  Band  Eigenvalues  Occupancy
  0     1     11.06962    0.01420
  0     2     11.06962    0.01420
  0     3     12.56704    0.00000
  0     4     15.10631    0.00000

  1     1      8.06338    2.00000
  1     2     11.56943    0.00010
  1     3     12.83956    0.00000
  1     4     15.60933    0.00000


Fermi level: 10.57556

No gap
No difference between direct/indirect transitions
Timing:                              incl.     excl.
-----------------------------------------------------------
Hamiltonian:                         0.020     0.000   0.0% |
 Atomic:                             0.017     0.000   0.0% |
  XC Correction:                     0.017     0.017   1.0% |
 Calculate atomic Hamiltonians:      0.000     0.000   0.0% |
 Communicate:                        0.000     0.000   0.0% |
 Initialize Hamiltonian:             0.000     0.000   0.0% |
 Poisson:                            0.000     0.000   0.0% |
 XC 3D grid:                         0.002     0.002   0.1% |
LCAO initialization:                 0.121     0.003   0.2% |
 LCAO eigensolver:                   0.045     0.000   0.0% |
  Calculate projections:             0.000     0.000   0.0% |
  DenseAtomicCorrection:             0.000     0.000   0.0% |
  Distribute overlap matrix:         0.000     0.000   0.0% |
  Orbital Layouts:                   0.008     0.008   0.4% |
  Potential matrix:                  0.035     0.035   1.9% ||
  Sum over cells:                    0.002     0.002   0.1% |
 LCAO to grid:                       0.032     0.032   1.8% ||
 Set positions (LCAO WFS):           0.041     0.007   0.4% |
  Basic WFS set positions:           0.001     0.001   0.0% |
  Basis functions set positions:     0.000     0.000   0.0% |
  P tci:                             0.010     0.010   0.6% |
  ST tci:                            0.020     0.020   1.1% |
  mktci:                             0.003     0.003   0.2% |
PWDescriptor:                        0.001     0.001   0.0% |
SCF-cycle:                           1.622     0.009   0.5% |
 Davidson:                           1.312     0.148   8.1% |--|
  Apply H:                           0.187     0.184  10.1% |---|
   HMM T:                            0.004     0.004   0.2% |
  Subspace diag:                     0.252     0.003   0.2% |
   calc_h_matrix:                    0.202     0.014   0.7% |
    Apply H:                         0.188     0.184  10.2% |---|
     HMM T:                          0.004     0.004   0.2% |
   diagonalize:                      0.041     0.041   2.2% ||
   rotate_psi:                       0.006     0.006   0.3% |
  calc. matrices:                    0.434     0.060   3.3% ||
   Apply H:                          0.374     0.367  20.2% |-------|
    HMM T:                           0.007     0.007   0.4% |
  diagonalize:                       0.281     0.281  15.5% |-----|
  rotate_psi:                        0.010     0.010   0.6% |
 Density:                            0.103     0.000   0.0% |
  Atomic density matrices:           0.005     0.005   0.3% |
  Mix:                               0.007     0.007   0.4% |
  Multipole moments:                 0.000     0.000   0.0% |
  Pseudo density:                    0.091     0.086   4.7% |-|
   Symmetrize density:               0.005     0.005   0.3% |
 Hamiltonian:                        0.194     0.001   0.1% |
  Atomic:                            0.169     0.001   0.1% |
   XC Correction:                    0.168     0.168   9.2% |---|
  Calculate atomic Hamiltonians:     0.003     0.003   0.1% |
  Communicate:                       0.000     0.000   0.0% |
  Poisson:                           0.000     0.000   0.0% |
  XC 3D grid:                        0.021     0.021   1.2% |
 Orthonormalize:                     0.004     0.000   0.0% |
  calc_s_matrix:                     0.001     0.001   0.0% |
  inverse-cholesky:                  0.000     0.000   0.0% |
  projections:                       0.002     0.002   0.1% |
  rotate_psi_s:                      0.000     0.000   0.0% |
Set symmetry:                        0.013     0.013   0.7% |
Other:                               0.039     0.039   2.1% ||
-----------------------------------------------------------
Total:                                         1.815 100.0%

Memory usage: 242.44 MiB
Date: Tue Feb  4 18:51:33 2025
