
  ___ ___ ___ _ _ _  
 |   |   |_  | | | | 
 | | | | | . | | | | 
 |__ |  _|___|_____|  25.1.0
 |___|_|             

User:   zoe@Zoes-MacBook-Air.local
Date:   Tue Feb  4 18:57:42 2025
Arch:   arm64
Pid:    81466
CWD:    /Users/zoe/Documents/Python/TIF320_Computitional_molecular_physics
Python: 3.12.2
gpaw:   /opt/anaconda3/envs/tif320env/lib/python3.12/site-packages/gpaw
_gpaw:  /opt/anaconda3/envs/tif320env/lib/python3.12/site-packages/
        _gpaw.cpython-312-darwin.so
ase:    /opt/anaconda3/envs/tif320env/lib/python3.12/site-packages/ase (version 3.24.0)
numpy:  /opt/anaconda3/envs/tif320env/lib/python3.12/site-packages/numpy (version 2.0.1)
scipy:  /opt/anaconda3/envs/tif320env/lib/python3.12/site-packages/scipy (version 1.15.1)
libxc:  7.0.0
units:  Angstrom and eV
cores: 1
OpenMP: False
OMP_NUM_THREADS: 1

Input parameters:
  kpts: [8 8 8]
  mode: {ecut: 400.0,
         name: pw}
  xc: PBE

System changes: positions, numbers, cell, pbc, initial_charges, initial_magmoms 

Initialize ...

species:
  Al:
    name: Aluminium
    id: 0292cae29f5d6237e50f6abdd43a7bdd
    Z: 13.0
    valence: 3
    core: 10
    charge: 0.0
    file: /opt/anaconda3/envs/tif320env/gpaw-setups/gpaw-setups-24.11.0/Al.PBE.gz
    compensation charges: {type: gauss,
                           rc: 0.34,
                           lmax: 2}
    cutoffs: {filter: 1.91,
              core: 2.36}
    projectors:
      #              energy  rcut
      - 3s(2.00)    -7.753   1.085
      - 3p(1.00)    -2.712   1.085
      -  s          19.459   1.085
      -  p          24.499   1.085
      -  d           0.000   1.085
  
    # Using partial waves for Al as LCAO basis

Reference energy: -13206.846530  # eV

Spin-paired calculation

Convergence criteria:
 Maximum [total energy] change in last 3 cyles: 0.0005 eV / valence electron
 Maximum integral of absolute [dens]ity change: 0.0001 electrons / valence electron
 Maximum integral of absolute [eigenst]ate change: 4e-08 eV^2 / valence electron
 Maximum number of scf [iter]ations: 333
 (Square brackets indicate name in SCF output, whereas a 'c' in
 the SCF output indicates the quantity has converged.)

Symmetries present (total): 48

  ( 1  0  0)  ( 1  0  0)  ( 1  0  0)  ( 1  0  0)  ( 1  0  0)  ( 1  0  0)
  ( 0  1  0)  ( 0  1  0)  ( 0  0  1)  ( 0  0  1)  ( 0  0 -1)  ( 0  0 -1)
  ( 0  0  1)  ( 0  0 -1)  ( 0  1  0)  ( 0 -1  0)  ( 0  1  0)  ( 0 -1  0)

  ( 1  0  0)  ( 1  0  0)  ( 0  1  0)  ( 0  1  0)  ( 0  1  0)  ( 0  1  0)
  ( 0 -1  0)  ( 0 -1  0)  ( 1  0  0)  ( 1  0  0)  ( 0  0  1)  ( 0  0  1)
  ( 0  0  1)  ( 0  0 -1)  ( 0  0  1)  ( 0  0 -1)  ( 1  0  0)  (-1  0  0)

  ( 0  1  0)  ( 0  1  0)  ( 0  1  0)  ( 0  1  0)  ( 0  0  1)  ( 0  0  1)
  ( 0  0 -1)  ( 0  0 -1)  (-1  0  0)  (-1  0  0)  ( 1  0  0)  ( 1  0  0)
  ( 1  0  0)  (-1  0  0)  ( 0  0  1)  ( 0  0 -1)  ( 0  1  0)  ( 0 -1  0)

  ( 0  0  1)  ( 0  0  1)  ( 0  0  1)  ( 0  0  1)  ( 0  0  1)  ( 0  0  1)
  ( 0  1  0)  ( 0  1  0)  ( 0 -1  0)  ( 0 -1  0)  (-1  0  0)  (-1  0  0)
  ( 1  0  0)  (-1  0  0)  ( 1  0  0)  (-1  0  0)  ( 0  1  0)  ( 0 -1  0)

  ( 0  0 -1)  ( 0  0 -1)  ( 0  0 -1)  ( 0  0 -1)  ( 0  0 -1)  ( 0  0 -1)
  ( 1  0  0)  ( 1  0  0)  ( 0  1  0)  ( 0  1  0)  ( 0 -1  0)  ( 0 -1  0)
  ( 0  1  0)  ( 0 -1  0)  ( 1  0  0)  (-1  0  0)  ( 1  0  0)  (-1  0  0)

  ( 0  0 -1)  ( 0  0 -1)  ( 0 -1  0)  ( 0 -1  0)  ( 0 -1  0)  ( 0 -1  0)
  (-1  0  0)  (-1  0  0)  ( 1  0  0)  ( 1  0  0)  ( 0  0  1)  ( 0  0  1)
  ( 0  1  0)  ( 0 -1  0)  ( 0  0  1)  ( 0  0 -1)  ( 1  0  0)  (-1  0  0)

  ( 0 -1  0)  ( 0 -1  0)  ( 0 -1  0)  ( 0 -1  0)  (-1  0  0)  (-1  0  0)
  ( 0  0 -1)  ( 0  0 -1)  (-1  0  0)  (-1  0  0)  ( 0  1  0)  ( 0  1  0)
  ( 1  0  0)  (-1  0  0)  ( 0  0  1)  ( 0  0 -1)  ( 0  0  1)  ( 0  0 -1)

  (-1  0  0)  (-1  0  0)  (-1  0  0)  (-1  0  0)  (-1  0  0)  (-1  0  0)
  ( 0  0  1)  ( 0  0  1)  ( 0  0 -1)  ( 0  0 -1)  ( 0 -1  0)  ( 0 -1  0)
  ( 0  1  0)  ( 0 -1  0)  ( 0  1  0)  ( 0 -1  0)  ( 0  0  1)  ( 0  0 -1)

512 k-points: 8 x 8 x 8 Monkhorst-Pack grid
20 k-points in the irreducible part of the Brillouin zone
       k-points in crystal coordinates                weights
   0:     0.06250000    0.06250000    0.06250000          8/512
   1:     0.18750000    0.06250000    0.06250000         24/512
   2:     0.18750000    0.18750000    0.06250000         24/512
   3:     0.18750000    0.18750000    0.18750000          8/512
   4:     0.31250000    0.06250000    0.06250000         24/512
   5:     0.31250000    0.18750000    0.06250000         48/512
   6:     0.31250000    0.18750000    0.18750000         24/512
   7:     0.31250000    0.31250000    0.06250000         24/512
   8:     0.31250000    0.31250000    0.18750000         24/512
   9:     0.31250000    0.31250000    0.31250000          8/512
          ...
  19:     0.43750000    0.43750000    0.43750000          8/512

Wave functions: Plane wave expansion
  Cutoff energy: 400.000 eV
  Number of coefficients (min, max): 582, 603
  Pulay-stress correction: 0.000000 eV/Ang^3 (de/decut=0.000000)
  Using Numpy's FFT
  ScaLapack parameters: grid=1x1, blocksize=None
  Wavefunction extrapolation:
    Improved wavefunction reuse through dual PAW basis 

Occupation numbers: Fermi-Dirac:
  width: 0.1000  # eV
 

Eigensolver
   Davidson(niter=2) 

Densities:
  Coarse grid: 15*15*15 grid
  Fine grid: 30*30*30 grid
  Total Charge: 0.000000 

Density mixing:
  Method: separate
  Backend: pulay
  Linear mixing parameter: 0.05
  old densities: 5
  Damping of long wavelength oscillations: 50 

Hamiltonian:
  XC and Coulomb potentials evaluated on a 30*30*30 grid
  Using the PBE Exchange-Correlation functional
  External potential:
    NoExternalPotential
 

XC parameters: PBE with 2 nearest neighbor stencil

Memory estimate:
  Process memory now: 248.62 MiB
  Calculator: 5.24 MiB
    Density: 1.55 MiB
      Arrays: 0.67 MiB
      Localized functions: 0.62 MiB
      Mixer: 0.26 MiB
    Hamiltonian: 0.45 MiB
      Arrays: 0.44 MiB
      XC: 0.00 MiB
      Poisson: 0.00 MiB
      vbar: 0.01 MiB
    Wavefunctions: 3.24 MiB
      Arrays psit_nG: 1.47 MiB
      Eigensolver: 0.13 MiB
      Projections: 0.06 MiB
      Projectors: 1.26 MiB
      PW-descriptor: 0.31 MiB

Total number of cores used: 1

Number of atoms: 2
Number of atomic orbitals: 8
Number of bands in calculation: 8
Number of valence electrons: 6
Bands to converge: occupied

... initialized

Initializing position-dependent things.

Density initialized from atomic densities
Creating initial wave functions:
  8 bands from LCAO basis set

   .-------.  
  /|       |  
 * |       |  
 | |  Al   |  
 | .-------.  
 |/       /   
 Al------*    

Positions:
   0 Al     0.000000    0.000000    0.000000    ( 0.0000,  0.0000,  0.0000)
   1 Al     1.594942    1.594942    1.594942    ( 0.0000,  0.0000,  0.0000)

Unit cell:
           periodic     x           y           z      points  spacing
  1. axis:    yes    3.189883    0.000000    0.000000    15     0.2127
  2. axis:    yes    0.000000    3.189883    0.000000    15     0.2127
  3. axis:    yes    0.000000    0.000000    3.189883    15     0.2127

  Lengths:   3.189883   3.189883   3.189883
  Angles:   90.000000  90.000000  90.000000

Effective grid spacing dv^(1/3) = 0.2127

     iter     time        total  log10-change:
                         energy   eigst   dens
iter:   1 18:57:43    -7.276598
iter:   2 18:57:43    -7.278956   -2.65  -0.96
iter:   3 18:57:43    -7.279848   -2.54  -0.97
iter:   4 18:57:43    -7.275424   -3.77  -1.23
iter:   5 18:57:43    -7.276229   -4.90  -2.38
iter:   6 18:57:44    -7.275552c  -4.48  -1.79
iter:   7 18:57:44    -7.275552c  -6.41  -3.42
iter:   8 18:57:44    -7.275552c  -7.95c -3.83
iter:   9 18:57:44    -7.275552c  -8.42c -3.71
iter:  10 18:57:44    -7.275552c -10.21c -4.58c

Converged after 10 iterations.

Dipole moment: (-0.000000, 0.000000, 0.000000) |e|*Ang

Energy contributions relative to reference atoms: (reference = -13206.846530)

Kinetic:         +9.805628
Potential:       -5.469713
External:        +0.000000
XC:             -11.583576
Entropy (-ST):   -0.027812
Local:           -0.013983
SIC:             +0.000000
--------------------------
Free energy:     -7.289458
Extrapolated:    -7.275552

Showing only first 2 kpts
 Kpt  Band  Eigenvalues  Occupancy
  0     1      8.12563    0.00065
  0     2      8.12563    0.00065
  0     3      8.72120    0.00000
  0     4     11.69848    0.00000

  1     1      5.45040    2.00000
  1     2      8.54263    0.00001
  1     3      9.00271    0.00000
  1     4     12.13499    0.00000


Fermi level: 7.32270

No gap
No difference between direct/indirect transitions
Timing:                              incl.     excl.
-----------------------------------------------------------
Hamiltonian:                         0.022     0.000   0.0% |
 Atomic:                             0.018     0.000   0.0% |
  XC Correction:                     0.018     0.018   1.0% |
 Calculate atomic Hamiltonians:      0.000     0.000   0.0% |
 Communicate:                        0.000     0.000   0.0% |
 Initialize Hamiltonian:             0.000     0.000   0.0% |
 Poisson:                            0.000     0.000   0.0% |
 XC 3D grid:                         0.003     0.003   0.2% |
LCAO initialization:                 0.100     0.003   0.2% |
 LCAO eigensolver:                   0.031     0.000   0.0% |
  Calculate projections:             0.000     0.000   0.0% |
  DenseAtomicCorrection:             0.000     0.000   0.0% |
  Distribute overlap matrix:         0.000     0.000   0.0% |
  Orbital Layouts:                   0.005     0.005   0.3% |
  Potential matrix:                  0.024     0.024   1.3% ||
  Sum over cells:                    0.001     0.001   0.1% |
 LCAO to grid:                       0.028     0.028   1.6% ||
 Set positions (LCAO WFS):           0.037     0.006   0.3% |
  Basic WFS set positions:           0.001     0.001   0.0% |
  Basis functions set positions:     0.000     0.000   0.0% |
  P tci:                             0.009     0.009   0.5% |
  ST tci:                            0.018     0.018   1.0% |
  mktci:                             0.003     0.003   0.2% |
PWDescriptor:                        0.001     0.001   0.1% |
SCF-cycle:                           1.635     0.008   0.4% |
 Davidson:                           1.337     0.158   8.8% |---|
  Apply H:                           0.196     0.193  10.7% |---|
   HMM T:                            0.004     0.004   0.2% |
  Subspace diag:                     0.259     0.003   0.2% |
   calc_h_matrix:                    0.213     0.013   0.7% |
    Apply H:                         0.200     0.196  10.8% |---|
     HMM T:                          0.004     0.004   0.2% |
   diagonalize:                      0.036     0.036   2.0% ||
   rotate_psi:                       0.007     0.007   0.4% |
  calc. matrices:                    0.453     0.063   3.5% ||
   Apply H:                          0.390     0.383  21.2% |-------|
    HMM T:                           0.007     0.007   0.4% |
  diagonalize:                       0.260     0.260  14.4% |-----|
  rotate_psi:                        0.011     0.011   0.6% |
 Density:                            0.105     0.000   0.0% |
  Atomic density matrices:           0.005     0.005   0.3% |
  Mix:                               0.007     0.007   0.4% |
  Multipole moments:                 0.000     0.000   0.0% |
  Pseudo density:                    0.094     0.088   4.9% |-|
   Symmetrize density:               0.005     0.005   0.3% |
 Hamiltonian:                        0.181     0.001   0.1% |
  Atomic:                            0.155     0.001   0.1% |
   XC Correction:                    0.153     0.153   8.5% |--|
  Calculate atomic Hamiltonians:     0.003     0.003   0.2% |
  Communicate:                       0.000     0.000   0.0% |
  Poisson:                           0.000     0.000   0.0% |
  XC 3D grid:                        0.022     0.022   1.2% |
 Orthonormalize:                     0.004     0.000   0.0% |
  calc_s_matrix:                     0.001     0.001   0.0% |
  inverse-cholesky:                  0.000     0.000   0.0% |
  projections:                       0.002     0.002   0.1% |
  rotate_psi_s:                      0.000     0.000   0.0% |
Set symmetry:                        0.012     0.012   0.7% |
Other:                               0.037     0.037   2.0% ||
-----------------------------------------------------------
Total:                                         1.806 100.0%

Memory usage: 248.97 MiB
Date: Tue Feb  4 18:57:44 2025
