
  ___ ___ ___ _ _ _  
 |   |   |_  | | | | 
 | | | | | . | | | | 
 |__ |  _|___|_____|  25.1.0
 |___|_|             

User:   zoe@Zoes-MacBook-Air.local
Date:   Tue Feb  4 18:51:29 2025
Arch:   arm64
Pid:    81345
CWD:    /Users/zoe/Documents/Python/TIF320_Computitional_molecular_physics
Python: 3.12.2
gpaw:   /opt/anaconda3/envs/tif320env/lib/python3.12/site-packages/gpaw
_gpaw:  /opt/anaconda3/envs/tif320env/lib/python3.12/site-packages/
        _gpaw.cpython-312-darwin.so
ase:    /opt/anaconda3/envs/tif320env/lib/python3.12/site-packages/ase (version 3.24.0)
numpy:  /opt/anaconda3/envs/tif320env/lib/python3.12/site-packages/numpy (version 2.0.1)
scipy:  /opt/anaconda3/envs/tif320env/lib/python3.12/site-packages/scipy (version 1.15.1)
libxc:  7.0.0
units:  Angstrom and eV
cores: 1
OpenMP: False
OMP_NUM_THREADS: 1

Input parameters:
  kpts: [8 8 8]
  mode: {ecut: 400.0,
         name: pw}

System changes: positions, numbers, cell, pbc, initial_charges, initial_magmoms 

Initialize ...

species:
  Al:
    name: Aluminium
    id: 2e6447feaea722efcff26bf034b25f30
    Z: 13.0
    valence: 3
    core: 10
    charge: 0.0
    file: /opt/anaconda3/envs/tif320env/gpaw-setups/gpaw-setups-24.11.0/Al.LDA.gz
    compensation charges: {type: gauss,
                           rc: 0.34,
                           lmax: 2}
    cutoffs: {filter: 1.91,
              core: 2.36}
    projectors:
      #              energy  rcut
      - 3s(2.00)    -7.830   1.085
      - 3p(1.00)    -2.783   1.085
      -  s          19.382   1.085
      -  p          24.428   1.085
      -  d           0.000   1.085
  
    # Using partial waves for Al as LCAO basis

Reference energy: -13156.842615  # eV

Spin-paired calculation

Convergence criteria:
 Maximum [total energy] change in last 3 cyles: 0.0005 eV / valence electron
 Maximum integral of absolute [dens]ity change: 0.0001 electrons / valence electron
 Maximum integral of absolute [eigenst]ate change: 4e-08 eV^2 / valence electron
 Maximum number of scf [iter]ations: 333
 (Square brackets indicate name in SCF output, whereas a 'c' in
 the SCF output indicates the quantity has converged.)

Symmetries present (total): 48

  ( 1  0  0)  ( 1  0  0)  ( 1  0  0)  ( 1  0  0)  ( 1  0  0)  ( 1  0  0)
  ( 0  1  0)  ( 0  1  0)  ( 0  0  1)  ( 0  0  1)  ( 0  0 -1)  ( 0  0 -1)
  ( 0  0  1)  ( 0  0 -1)  ( 0  1  0)  ( 0 -1  0)  ( 0  1  0)  ( 0 -1  0)

  ( 1  0  0)  ( 1  0  0)  ( 0  1  0)  ( 0  1  0)  ( 0  1  0)  ( 0  1  0)
  ( 0 -1  0)  ( 0 -1  0)  ( 1  0  0)  ( 1  0  0)  ( 0  0  1)  ( 0  0  1)
  ( 0  0  1)  ( 0  0 -1)  ( 0  0  1)  ( 0  0 -1)  ( 1  0  0)  (-1  0  0)

  ( 0  1  0)  ( 0  1  0)  ( 0  1  0)  ( 0  1  0)  ( 0  0  1)  ( 0  0  1)
  ( 0  0 -1)  ( 0  0 -1)  (-1  0  0)  (-1  0  0)  ( 1  0  0)  ( 1  0  0)
  ( 1  0  0)  (-1  0  0)  ( 0  0  1)  ( 0  0 -1)  ( 0  1  0)  ( 0 -1  0)

  ( 0  0  1)  ( 0  0  1)  ( 0  0  1)  ( 0  0  1)  ( 0  0  1)  ( 0  0  1)
  ( 0  1  0)  ( 0  1  0)  ( 0 -1  0)  ( 0 -1  0)  (-1  0  0)  (-1  0  0)
  ( 1  0  0)  (-1  0  0)  ( 1  0  0)  (-1  0  0)  ( 0  1  0)  ( 0 -1  0)

  ( 0  0 -1)  ( 0  0 -1)  ( 0  0 -1)  ( 0  0 -1)  ( 0  0 -1)  ( 0  0 -1)
  ( 1  0  0)  ( 1  0  0)  ( 0  1  0)  ( 0  1  0)  ( 0 -1  0)  ( 0 -1  0)
  ( 0  1  0)  ( 0 -1  0)  ( 1  0  0)  (-1  0  0)  ( 1  0  0)  (-1  0  0)

  ( 0  0 -1)  ( 0  0 -1)  ( 0 -1  0)  ( 0 -1  0)  ( 0 -1  0)  ( 0 -1  0)
  (-1  0  0)  (-1  0  0)  ( 1  0  0)  ( 1  0  0)  ( 0  0  1)  ( 0  0  1)
  ( 0  1  0)  ( 0 -1  0)  ( 0  0  1)  ( 0  0 -1)  ( 1  0  0)  (-1  0  0)

  ( 0 -1  0)  ( 0 -1  0)  ( 0 -1  0)  ( 0 -1  0)  (-1  0  0)  (-1  0  0)
  ( 0  0 -1)  ( 0  0 -1)  (-1  0  0)  (-1  0  0)  ( 0  1  0)  ( 0  1  0)
  ( 1  0  0)  (-1  0  0)  ( 0  0  1)  ( 0  0 -1)  ( 0  0  1)  ( 0  0 -1)

  (-1  0  0)  (-1  0  0)  (-1  0  0)  (-1  0  0)  (-1  0  0)  (-1  0  0)
  ( 0  0  1)  ( 0  0  1)  ( 0  0 -1)  ( 0  0 -1)  ( 0 -1  0)  ( 0 -1  0)
  ( 0  1  0)  ( 0 -1  0)  ( 0  1  0)  ( 0 -1  0)  ( 0  0  1)  ( 0  0 -1)

512 k-points: 8 x 8 x 8 Monkhorst-Pack grid
20 k-points in the irreducible part of the Brillouin zone
       k-points in crystal coordinates                weights
   0:     0.06250000    0.06250000    0.06250000          8/512
   1:     0.18750000    0.06250000    0.06250000         24/512
   2:     0.18750000    0.18750000    0.06250000         24/512
   3:     0.18750000    0.18750000    0.18750000          8/512
   4:     0.31250000    0.06250000    0.06250000         24/512
   5:     0.31250000    0.18750000    0.06250000         48/512
   6:     0.31250000    0.18750000    0.18750000         24/512
   7:     0.31250000    0.31250000    0.06250000         24/512
   8:     0.31250000    0.31250000    0.18750000         24/512
   9:     0.31250000    0.31250000    0.31250000          8/512
          ...
  19:     0.43750000    0.43750000    0.43750000          8/512

Wave functions: Plane wave expansion
  Cutoff energy: 400.000 eV
  Number of coefficients (min, max): 696, 727
  Pulay-stress correction: 0.000000 eV/Ang^3 (de/decut=0.000000)
  Using Numpy's FFT
  ScaLapack parameters: grid=1x1, blocksize=None
  Wavefunction extrapolation:
    Improved wavefunction reuse through dual PAW basis 

Occupation numbers: Fermi-Dirac:
  width: 0.1000  # eV
 

Eigensolver
   Davidson(niter=2) 

Densities:
  Coarse grid: 16*16*16 grid
  Fine grid: 32*32*32 grid
  Total Charge: 0.000000 

Density mixing:
  Method: separate
  Backend: pulay
  Linear mixing parameter: 0.05
  old densities: 5
  Damping of long wavelength oscillations: 50 

Hamiltonian:
  XC and Coulomb potentials evaluated on a 32*32*32 grid
  Using the LDA Exchange-Correlation functional
  External potential:
    NoExternalPotential
 

Memory estimate:
  Process memory now: 240.25 MiB
  Calculator: 6.33 MiB
    Density: 1.89 MiB
      Arrays: 0.81 MiB
      Localized functions: 0.76 MiB
      Mixer: 0.31 MiB
    Hamiltonian: 0.55 MiB
      Arrays: 0.53 MiB
      XC: 0.00 MiB
      Poisson: 0.00 MiB
      vbar: 0.02 MiB
    Wavefunctions: 3.89 MiB
      Arrays psit_nG: 1.77 MiB
      Eigensolver: 0.15 MiB
      Projections: 0.06 MiB
      Projectors: 1.52 MiB
      PW-descriptor: 0.38 MiB

Total number of cores used: 1

Number of atoms: 2
Number of atomic orbitals: 8
Number of bands in calculation: 8
Number of valence electrons: 6
Bands to converge: occupied

... initialized

Initializing position-dependent things.

Density initialized from atomic densities
Creating initial wave functions:
  8 bands from LCAO basis set

   .-------.  
  /|       |  
 * |       |  
 | |  Al   |  
 | .-------.  
 |/       /   
 Al------*    

Positions:
   0 Al     0.000000    0.000000    0.000000    ( 0.0000,  0.0000,  0.0000)
   1 Al     1.700497    1.700497    1.700497    ( 0.0000,  0.0000,  0.0000)

Unit cell:
           periodic     x           y           z      points  spacing
  1. axis:    yes    3.400994    0.000000    0.000000    16     0.2126
  2. axis:    yes    0.000000    3.400994    0.000000    16     0.2126
  3. axis:    yes    0.000000    0.000000    3.400994    16     0.2126

  Lengths:   3.400994   3.400994   3.400994
  Angles:   90.000000  90.000000  90.000000

Effective grid spacing dv^(1/3) = 0.2126

     iter     time        total  log10-change:
                         energy   eigst   dens
iter:   1 18:51:29    -7.956929
iter:   2 18:51:30    -7.956662   -2.71  -0.97
iter:   3 18:51:30    -7.936820   -2.98  -0.99
iter:   4 18:51:30    -7.930893   -4.18  -1.36
iter:   5 18:51:30    -7.932176   -4.27  -2.41
iter:   6 18:51:30    -7.930950c  -4.81  -1.76
iter:   7 18:51:30    -7.930951c  -7.03  -3.75
iter:   8 18:51:31    -7.930950c  -7.94c -3.86
iter:   9 18:51:31    -7.930950c  -7.58c -3.93
iter:  10 18:51:31    -7.930950c  -9.11c -4.22c

Converged after 10 iterations.

Dipole moment: (-0.000000, -0.000000, -0.000000) |e|*Ang

Energy contributions relative to reference atoms: (reference = -13156.842615)

Kinetic:         +0.396191
Potential:       +1.099467
External:        +0.000000
XC:              -9.406624
Entropy (-ST):   -0.031573
Local:           -0.004198
SIC:             +0.000000
--------------------------
Free energy:     -7.946736
Extrapolated:    -7.930950

Showing only first 2 kpts
 Kpt  Band  Eigenvalues  Occupancy
  0     1      6.24115    0.00022
  0     2      6.24115    0.00022
  0     3      6.28870    0.00013
  0     4      9.71660    0.00000

  1     1      3.74729    2.00000
  1     2      6.60823    0.00001
  1     3      6.64038    0.00000
  1     4     10.10586    0.00000


Fermi level: 5.32739

No gap
No difference between direct/indirect transitions
Timing:                              incl.     excl.
-----------------------------------------------------------
Hamiltonian:                         0.007     0.000   0.0% |
 Atomic:                             0.006     0.000   0.0% |
  XC Correction:                     0.005     0.005   0.3% |
 Calculate atomic Hamiltonians:      0.000     0.000   0.0% |
 Communicate:                        0.000     0.000   0.0% |
 Initialize Hamiltonian:             0.000     0.000   0.0% |
 Poisson:                            0.000     0.000   0.0% |
 XC 3D grid:                         0.001     0.001   0.1% |
LCAO initialization:                 0.094     0.003   0.2% |
 LCAO eigensolver:                   0.027     0.000   0.0% |
  Calculate projections:             0.000     0.000   0.0% |
  DenseAtomicCorrection:             0.000     0.000   0.0% |
  Distribute overlap matrix:         0.000     0.000   0.0% |
  Orbital Layouts:                   0.005     0.005   0.3% |
  Potential matrix:                  0.020     0.020   1.1% |
  Sum over cells:                    0.001     0.001   0.1% |
 LCAO to grid:                       0.030     0.030   1.7% ||
 Set positions (LCAO WFS):           0.033     0.006   0.3% |
  Basic WFS set positions:           0.001     0.001   0.0% |
  Basis functions set positions:     0.000     0.000   0.0% |
  P tci:                             0.009     0.009   0.5% |
  ST tci:                            0.016     0.016   0.9% |
  mktci:                             0.002     0.002   0.1% |
PWDescriptor:                        0.001     0.001   0.1% |
SCF-cycle:                           1.635     0.008   0.5% |
 Davidson:                           1.440     0.188  10.6% |---|
  Apply H:                           0.215     0.211  11.8% |----|
   HMM T:                            0.004     0.004   0.2% |
  Subspace diag:                     0.276     0.003   0.2% |
   calc_h_matrix:                    0.229     0.013   0.7% |
    Apply H:                         0.215     0.211  11.9% |----|
     HMM T:                          0.004     0.004   0.2% |
   diagonalize:                      0.037     0.037   2.1% ||
   rotate_psi:                       0.008     0.008   0.4% |
  calc. matrices:                    0.492     0.061   3.4% ||
   Apply H:                          0.431     0.423  23.8% |---------|
    HMM T:                           0.007     0.007   0.4% |
  diagonalize:                       0.257     0.257  14.4% |-----|
  rotate_psi:                        0.013     0.013   0.7% |
 Density:                            0.118     0.000   0.0% |
  Atomic density matrices:           0.005     0.005   0.3% |
  Mix:                               0.008     0.008   0.5% |
  Multipole moments:                 0.000     0.000   0.0% |
  Pseudo density:                    0.105     0.099   5.5% |-|
   Symmetrize density:               0.007     0.007   0.4% |
 Hamiltonian:                        0.064     0.001   0.1% |
  Atomic:                            0.050     0.001   0.1% |
   XC Correction:                    0.049     0.049   2.7% ||
  Calculate atomic Hamiltonians:     0.003     0.003   0.2% |
  Communicate:                       0.000     0.000   0.0% |
  Poisson:                           0.000     0.000   0.0% |
  XC 3D grid:                        0.011     0.011   0.6% |
 Orthonormalize:                     0.004     0.000   0.0% |
  calc_s_matrix:                     0.001     0.001   0.0% |
  inverse-cholesky:                  0.000     0.000   0.0% |
  projections:                       0.002     0.002   0.1% |
  rotate_psi_s:                      0.000     0.000   0.0% |
Set symmetry:                        0.012     0.012   0.7% |
Other:                               0.032     0.032   1.8% ||
-----------------------------------------------------------
Total:                                         1.782 100.0%

Memory usage: 242.42 MiB
Date: Tue Feb  4 18:51:31 2025
