
  ___ ___ ___ _ _ _  
 |   |   |_  | | | | 
 | | | | | . | | | | 
 |__ |  _|___|_____|  25.1.0
 |___|_|             

User:   zoe@Zoes-MacBook-Air.local
Date:   Tue Feb  4 17:08:04 2025
Arch:   arm64
Pid:    80761
CWD:    /Users/zoe/Documents/Python/TIF320_Computitional_molecular_physics
Python: 3.12.2
gpaw:   /opt/anaconda3/envs/tif320env/lib/python3.12/site-packages/gpaw
_gpaw:  /opt/anaconda3/envs/tif320env/lib/python3.12/site-packages/
        _gpaw.cpython-312-darwin.so
ase:    /opt/anaconda3/envs/tif320env/lib/python3.12/site-packages/ase (version 3.24.0)
numpy:  /opt/anaconda3/envs/tif320env/lib/python3.12/site-packages/numpy (version 2.0.1)
scipy:  /opt/anaconda3/envs/tif320env/lib/python3.12/site-packages/scipy (version 1.15.1)
libxc:  7.0.0
units:  Angstrom and eV
cores: 1
OpenMP: False
OMP_NUM_THREADS: 1

Input parameters:
  kpts: [8 8 8]
  mode: {ecut: 300.0,
         name: pw}

System changes: positions, numbers, cell, pbc, initial_charges, initial_magmoms 

Initialize ...

species:
  Al:
    name: Aluminium
    id: 2e6447feaea722efcff26bf034b25f30
    Z: 13.0
    valence: 3
    core: 10
    charge: 0.0
    file: /opt/anaconda3/envs/tif320env/gpaw-setups/gpaw-setups-24.11.0/Al.LDA.gz
    compensation charges: {type: gauss,
                           rc: 0.34,
                           lmax: 2}
    cutoffs: {filter: 1.91,
              core: 2.36}
    projectors:
      #              energy  rcut
      - 3s(2.00)    -7.830   1.085
      - 3p(1.00)    -2.783   1.085
      -  s          19.382   1.085
      -  p          24.428   1.085
      -  d           0.000   1.085
  
    # Using partial waves for Al as LCAO basis

Reference energy: -13156.842615  # eV

Spin-paired calculation

Convergence criteria:
 Maximum [total energy] change in last 3 cyles: 0.0005 eV / valence electron
 Maximum integral of absolute [dens]ity change: 0.0001 electrons / valence electron
 Maximum integral of absolute [eigenst]ate change: 4e-08 eV^2 / valence electron
 Maximum number of scf [iter]ations: 333
 (Square brackets indicate name in SCF output, whereas a 'c' in
 the SCF output indicates the quantity has converged.)

Symmetries present (total): 48

  ( 1  0  0)  ( 1  0  0)  ( 1  0  0)  ( 1  0  0)  ( 1  0  0)  ( 1  0  0)
  ( 0  1  0)  ( 0  1  0)  ( 0  0  1)  ( 0  0  1)  ( 0  0 -1)  ( 0  0 -1)
  ( 0  0  1)  ( 0  0 -1)  ( 0  1  0)  ( 0 -1  0)  ( 0  1  0)  ( 0 -1  0)

  ( 1  0  0)  ( 1  0  0)  ( 0  1  0)  ( 0  1  0)  ( 0  1  0)  ( 0  1  0)
  ( 0 -1  0)  ( 0 -1  0)  ( 1  0  0)  ( 1  0  0)  ( 0  0  1)  ( 0  0  1)
  ( 0  0  1)  ( 0  0 -1)  ( 0  0  1)  ( 0  0 -1)  ( 1  0  0)  (-1  0  0)

  ( 0  1  0)  ( 0  1  0)  ( 0  1  0)  ( 0  1  0)  ( 0  0  1)  ( 0  0  1)
  ( 0  0 -1)  ( 0  0 -1)  (-1  0  0)  (-1  0  0)  ( 1  0  0)  ( 1  0  0)
  ( 1  0  0)  (-1  0  0)  ( 0  0  1)  ( 0  0 -1)  ( 0  1  0)  ( 0 -1  0)

  ( 0  0  1)  ( 0  0  1)  ( 0  0  1)  ( 0  0  1)  ( 0  0  1)  ( 0  0  1)
  ( 0  1  0)  ( 0  1  0)  ( 0 -1  0)  ( 0 -1  0)  (-1  0  0)  (-1  0  0)
  ( 1  0  0)  (-1  0  0)  ( 1  0  0)  (-1  0  0)  ( 0  1  0)  ( 0 -1  0)

  ( 0  0 -1)  ( 0  0 -1)  ( 0  0 -1)  ( 0  0 -1)  ( 0  0 -1)  ( 0  0 -1)
  ( 1  0  0)  ( 1  0  0)  ( 0  1  0)  ( 0  1  0)  ( 0 -1  0)  ( 0 -1  0)
  ( 0  1  0)  ( 0 -1  0)  ( 1  0  0)  (-1  0  0)  ( 1  0  0)  (-1  0  0)

  ( 0  0 -1)  ( 0  0 -1)  ( 0 -1  0)  ( 0 -1  0)  ( 0 -1  0)  ( 0 -1  0)
  (-1  0  0)  (-1  0  0)  ( 1  0  0)  ( 1  0  0)  ( 0  0  1)  ( 0  0  1)
  ( 0  1  0)  ( 0 -1  0)  ( 0  0  1)  ( 0  0 -1)  ( 1  0  0)  (-1  0  0)

  ( 0 -1  0)  ( 0 -1  0)  ( 0 -1  0)  ( 0 -1  0)  (-1  0  0)  (-1  0  0)
  ( 0  0 -1)  ( 0  0 -1)  (-1  0  0)  (-1  0  0)  ( 0  1  0)  ( 0  1  0)
  ( 1  0  0)  (-1  0  0)  ( 0  0  1)  ( 0  0 -1)  ( 0  0  1)  ( 0  0 -1)

  (-1  0  0)  (-1  0  0)  (-1  0  0)  (-1  0  0)  (-1  0  0)  (-1  0  0)
  ( 0  0  1)  ( 0  0  1)  ( 0  0 -1)  ( 0  0 -1)  ( 0 -1  0)  ( 0 -1  0)
  ( 0  1  0)  ( 0 -1  0)  ( 0  1  0)  ( 0 -1  0)  ( 0  0  1)  ( 0  0 -1)

512 k-points: 8 x 8 x 8 Monkhorst-Pack grid
20 k-points in the irreducible part of the Brillouin zone
       k-points in crystal coordinates                weights
   0:     0.06250000    0.06250000    0.06250000          8/512
   1:     0.18750000    0.06250000    0.06250000         24/512
   2:     0.18750000    0.18750000    0.06250000         24/512
   3:     0.18750000    0.18750000    0.18750000          8/512
   4:     0.31250000    0.06250000    0.06250000         24/512
   5:     0.31250000    0.18750000    0.06250000         48/512
   6:     0.31250000    0.18750000    0.18750000         24/512
   7:     0.31250000    0.31250000    0.06250000         24/512
   8:     0.31250000    0.31250000    0.18750000         24/512
   9:     0.31250000    0.31250000    0.31250000          8/512
          ...
  19:     0.43750000    0.43750000    0.43750000          8/512

Wave functions: Plane wave expansion
  Cutoff energy: 300.000 eV
  Number of coefficients (min, max): 1326, 1352
  Pulay-stress correction: 0.000000 eV/Ang^3 (de/decut=0.000000)
  Using Numpy's FFT
  ScaLapack parameters: grid=1x1, blocksize=None
  Wavefunction extrapolation:
    Improved wavefunction reuse through dual PAW basis 

Occupation numbers: Fermi-Dirac:
  width: 0.1000  # eV
 

Eigensolver
   Davidson(niter=2) 

Densities:
  Coarse grid: 20*20*20 grid
  Fine grid: 40*40*40 grid
  Total Charge: 0.000000 

Density mixing:
  Method: separate
  Backend: pulay
  Linear mixing parameter: 0.05
  old densities: 5
  Damping of long wavelength oscillations: 50 

Hamiltonian:
  XC and Coulomb potentials evaluated on a 40*40*40 grid
  Using the LDA Exchange-Correlation functional
  External potential:
    NoExternalPotential
 

Memory estimate:
  Process memory now: 252.94 MiB
  Calculator: 11.89 MiB
    Density: 3.61 MiB
      Arrays: 1.59 MiB
      Localized functions: 1.41 MiB
      Mixer: 0.61 MiB
    Hamiltonian: 1.07 MiB
      Arrays: 1.04 MiB
      XC: 0.00 MiB
      Poisson: 0.00 MiB
      vbar: 0.03 MiB
    Wavefunctions: 7.22 MiB
      Arrays psit_nG: 3.30 MiB
      Eigensolver: 0.28 MiB
      Projections: 0.06 MiB
      Projectors: 2.86 MiB
      PW-descriptor: 0.72 MiB

Total number of cores used: 1

Number of atoms: 2
Number of atomic orbitals: 8
Number of bands in calculation: 8
Number of valence electrons: 6
Bands to converge: occupied

... initialized

Initializing position-dependent things.

Density initialized from atomic densities
Creating initial wave functions:
  8 bands from LCAO basis set

    .-----------.  
   /|           |  
  / |           |  
 *  |           |  
 |  |           |  
 |  |    Al     |  
 |  .-----------.  
 | /           /   
 |/           /    
 Al----------*     

Positions:
   0 Al     0.000000    0.000000    0.000000    ( 0.0000,  0.0000,  0.0000)
   1 Al     2.418468    2.418468    2.418468    ( 0.0000,  0.0000,  0.0000)

Unit cell:
           periodic     x           y           z      points  spacing
  1. axis:    yes    4.836936    0.000000    0.000000    20     0.2418
  2. axis:    yes    0.000000    4.836936    0.000000    20     0.2418
  3. axis:    yes    0.000000    0.000000    4.836936    20     0.2418

  Lengths:   4.836936   4.836936   4.836936
  Angles:   90.000000  90.000000  90.000000

Effective grid spacing dv^(1/3) = 0.2418

     iter     time        total  log10-change:
                         energy   eigst   dens
iter:   1 17:08:04    -3.928288
iter:   2 17:08:04    -3.923586   -2.78  -0.99
iter:   3 17:08:05    -3.879431   -2.53  -1.01
iter:   4 17:08:05    -3.878548   -4.10  -1.94
iter:   5 17:08:05    -3.878971c  -4.57  -2.13
iter:   6 17:08:06    -3.878598c  -4.37  -2.03
iter:   7 17:08:06    -3.878569c  -5.62  -2.78
iter:   8 17:08:06    -3.878570c  -6.77  -3.79
iter:   9 17:08:07    -3.878569c  -8.59c -3.70
iter:  10 17:08:07    -3.878567c  -7.60c -3.85
iter:  11 17:08:07    -3.878568c  -8.26c -3.87
iter:  12 17:08:07    -3.878568c  -9.66c -4.82c

Converged after 12 iterations.

Dipole moment: (-0.000000, -0.000000, -0.000000) |e|*Ang

Energy contributions relative to reference atoms: (reference = -13156.842615)

Kinetic:         -9.990471
Potential:       +6.909004
External:        +0.000000
XC:              -0.751373
Entropy (-ST):   -0.087641
Local:           -0.001907
SIC:             +0.000000
--------------------------
Free energy:     -3.922389
Extrapolated:    -3.878568

Showing only first 2 kpts
 Kpt  Band  Eigenvalues  Occupancy
  0     1     -2.96797    2.00000
  0     2      0.39557    0.00098
  0     3      0.39557    0.00098
  0     4      0.73195    0.00003

  1     1     -3.21512    2.00000
  1     2      0.07351    0.02433
  1     3      0.56097    0.00019
  1     4      1.00409    0.00000


Fermi level: -0.36617

No gap
No difference between direct/indirect transitions
Timing:                              incl.     excl.
-----------------------------------------------------------
Hamiltonian:                         0.009     0.000   0.0% |
 Atomic:                             0.006     0.000   0.0% |
  XC Correction:                     0.006     0.006   0.1% |
 Calculate atomic Hamiltonians:      0.000     0.000   0.0% |
 Communicate:                        0.000     0.000   0.0% |
 Initialize Hamiltonian:             0.000     0.000   0.0% |
 Poisson:                            0.000     0.000   0.0% |
 XC 3D grid:                         0.002     0.002   0.1% |
LCAO initialization:                 0.096     0.003   0.1% |
 LCAO eigensolver:                   0.012     0.000   0.0% |
  Calculate projections:             0.000     0.000   0.0% |
  DenseAtomicCorrection:             0.000     0.000   0.0% |
  Distribute overlap matrix:         0.000     0.000   0.0% |
  Orbital Layouts:                   0.005     0.005   0.1% |
  Potential matrix:                  0.005     0.005   0.1% |
  Sum over cells:                    0.001     0.001   0.0% |
 LCAO to grid:                       0.066     0.066   1.7% ||
 Set positions (LCAO WFS):           0.015     0.002   0.0% |
  Basic WFS set positions:           0.001     0.001   0.0% |
  Basis functions set positions:     0.000     0.000   0.0% |
  P tci:                             0.005     0.005   0.1% |
  ST tci:                            0.007     0.007   0.2% |
  mktci:                             0.001     0.001   0.0% |
PWDescriptor:                        0.002     0.002   0.1% |
SCF-cycle:                           3.677     0.010   0.3% |
 Davidson:                           3.330     1.286  33.6% |------------|
  Apply H:                           0.369     0.364   9.5% |---|
   HMM T:                            0.005     0.005   0.1% |
  Subspace diag:                     0.457     0.003   0.1% |
   calc_h_matrix:                    0.388     0.020   0.5% |
    Apply H:                         0.367     0.362   9.4% |---|
     HMM T:                          0.006     0.006   0.2% |
   diagonalize:                      0.044     0.044   1.1% |
   rotate_psi:                       0.022     0.022   0.6% |
  calc. matrices:                    0.870     0.143   3.7% ||
   Apply H:                          0.727     0.715  18.7% |------|
    HMM T:                           0.012     0.012   0.3% |
  diagonalize:                       0.305     0.305   8.0% |--|
  rotate_psi:                        0.042     0.042   1.1% |
 Density:                            0.208     0.000   0.0% |
  Atomic density matrices:           0.005     0.005   0.1% |
  Mix:                               0.015     0.015   0.4% |
  Multipole moments:                 0.000     0.000   0.0% |
  Pseudo density:                    0.187     0.173   4.5% |-|
   Symmetrize density:               0.015     0.015   0.4% |
 Hamiltonian:                        0.092     0.002   0.0% |
  Atomic:                            0.060     0.001   0.0% |
   XC Correction:                    0.059     0.059   1.5% ||
  Calculate atomic Hamiltonians:     0.006     0.006   0.2% |
  Communicate:                       0.000     0.000   0.0% |
  Poisson:                           0.001     0.001   0.0% |
  XC 3D grid:                        0.024     0.024   0.6% |
 Orthonormalize:                     0.038     0.000   0.0% |
  calc_s_matrix:                     0.001     0.001   0.0% |
  inverse-cholesky:                  0.000     0.000   0.0% |
  projections:                       0.035     0.035   0.9% |
  rotate_psi_s:                      0.001     0.001   0.0% |
Set symmetry:                        0.012     0.012   0.3% |
Other:                               0.035     0.035   0.9% |
-----------------------------------------------------------
Total:                                         3.831 100.0%

Memory usage: 254.34 MiB
Date: Tue Feb  4 17:08:07 2025
