
  ___ ___ ___ _ _ _  
 |   |   |_  | | | | 
 | | | | | . | | | | 
 |__ |  _|___|_____|  25.1.0
 |___|_|             

User:   zoe@Zoes-MacBook-Air.local
Date:   Tue Feb  4 17:08:40 2025
Arch:   arm64
Pid:    80761
CWD:    /Users/zoe/Documents/Python/TIF320_Computitional_molecular_physics
Python: 3.12.2
gpaw:   /opt/anaconda3/envs/tif320env/lib/python3.12/site-packages/gpaw
_gpaw:  /opt/anaconda3/envs/tif320env/lib/python3.12/site-packages/
        _gpaw.cpython-312-darwin.so
ase:    /opt/anaconda3/envs/tif320env/lib/python3.12/site-packages/ase (version 3.24.0)
numpy:  /opt/anaconda3/envs/tif320env/lib/python3.12/site-packages/numpy (version 2.0.1)
scipy:  /opt/anaconda3/envs/tif320env/lib/python3.12/site-packages/scipy (version 1.15.1)
libxc:  7.0.0
units:  Angstrom and eV
cores: 1
OpenMP: False
OMP_NUM_THREADS: 1

Input parameters:
  kpts: [8 8 8]
  mode: {ecut: 300.0,
         name: pw}
  xc: PBE

System changes: positions, numbers, cell, pbc, initial_charges, initial_magmoms 

Initialize ...

species:
  Al:
    name: Aluminium
    id: 0292cae29f5d6237e50f6abdd43a7bdd
    Z: 13.0
    valence: 3
    core: 10
    charge: 0.0
    file: /opt/anaconda3/envs/tif320env/gpaw-setups/gpaw-setups-24.11.0/Al.PBE.gz
    compensation charges: {type: gauss,
                           rc: 0.34,
                           lmax: 2}
    cutoffs: {filter: 1.91,
              core: 2.36}
    projectors:
      #              energy  rcut
      - 3s(2.00)    -7.753   1.085
      - 3p(1.00)    -2.712   1.085
      -  s          19.459   1.085
      -  p          24.499   1.085
      -  d           0.000   1.085
  
    # Using partial waves for Al as LCAO basis

Reference energy: -13206.846530  # eV

Spin-paired calculation

Convergence criteria:
 Maximum [total energy] change in last 3 cyles: 0.0005 eV / valence electron
 Maximum integral of absolute [dens]ity change: 0.0001 electrons / valence electron
 Maximum integral of absolute [eigenst]ate change: 4e-08 eV^2 / valence electron
 Maximum number of scf [iter]ations: 333
 (Square brackets indicate name in SCF output, whereas a 'c' in
 the SCF output indicates the quantity has converged.)

Symmetries present (total): 48

  ( 1  0  0)  ( 1  0  0)  ( 1  0  0)  ( 1  0  0)  ( 1  0  0)  ( 1  0  0)
  ( 0  1  0)  ( 0  1  0)  ( 0  0  1)  ( 0  0  1)  ( 0  0 -1)  ( 0  0 -1)
  ( 0  0  1)  ( 0  0 -1)  ( 0  1  0)  ( 0 -1  0)  ( 0  1  0)  ( 0 -1  0)

  ( 1  0  0)  ( 1  0  0)  ( 0  1  0)  ( 0  1  0)  ( 0  1  0)  ( 0  1  0)
  ( 0 -1  0)  ( 0 -1  0)  ( 1  0  0)  ( 1  0  0)  ( 0  0  1)  ( 0  0  1)
  ( 0  0  1)  ( 0  0 -1)  ( 0  0  1)  ( 0  0 -1)  ( 1  0  0)  (-1  0  0)

  ( 0  1  0)  ( 0  1  0)  ( 0  1  0)  ( 0  1  0)  ( 0  0  1)  ( 0  0  1)
  ( 0  0 -1)  ( 0  0 -1)  (-1  0  0)  (-1  0  0)  ( 1  0  0)  ( 1  0  0)
  ( 1  0  0)  (-1  0  0)  ( 0  0  1)  ( 0  0 -1)  ( 0  1  0)  ( 0 -1  0)

  ( 0  0  1)  ( 0  0  1)  ( 0  0  1)  ( 0  0  1)  ( 0  0  1)  ( 0  0  1)
  ( 0  1  0)  ( 0  1  0)  ( 0 -1  0)  ( 0 -1  0)  (-1  0  0)  (-1  0  0)
  ( 1  0  0)  (-1  0  0)  ( 1  0  0)  (-1  0  0)  ( 0  1  0)  ( 0 -1  0)

  ( 0  0 -1)  ( 0  0 -1)  ( 0  0 -1)  ( 0  0 -1)  ( 0  0 -1)  ( 0  0 -1)
  ( 1  0  0)  ( 1  0  0)  ( 0  1  0)  ( 0  1  0)  ( 0 -1  0)  ( 0 -1  0)
  ( 0  1  0)  ( 0 -1  0)  ( 1  0  0)  (-1  0  0)  ( 1  0  0)  (-1  0  0)

  ( 0  0 -1)  ( 0  0 -1)  ( 0 -1  0)  ( 0 -1  0)  ( 0 -1  0)  ( 0 -1  0)
  (-1  0  0)  (-1  0  0)  ( 1  0  0)  ( 1  0  0)  ( 0  0  1)  ( 0  0  1)
  ( 0  1  0)  ( 0 -1  0)  ( 0  0  1)  ( 0  0 -1)  ( 1  0  0)  (-1  0  0)

  ( 0 -1  0)  ( 0 -1  0)  ( 0 -1  0)  ( 0 -1  0)  (-1  0  0)  (-1  0  0)
  ( 0  0 -1)  ( 0  0 -1)  (-1  0  0)  (-1  0  0)  ( 0  1  0)  ( 0  1  0)
  ( 1  0  0)  (-1  0  0)  ( 0  0  1)  ( 0  0 -1)  ( 0  0  1)  ( 0  0 -1)

  (-1  0  0)  (-1  0  0)  (-1  0  0)  (-1  0  0)  (-1  0  0)  (-1  0  0)
  ( 0  0  1)  ( 0  0  1)  ( 0  0 -1)  ( 0  0 -1)  ( 0 -1  0)  ( 0 -1  0)
  ( 0  1  0)  ( 0 -1  0)  ( 0  1  0)  ( 0 -1  0)  ( 0  0  1)  ( 0  0 -1)

512 k-points: 8 x 8 x 8 Monkhorst-Pack grid
20 k-points in the irreducible part of the Brillouin zone
       k-points in crystal coordinates                weights
   0:     0.06250000    0.06250000    0.06250000          8/512
   1:     0.18750000    0.06250000    0.06250000         24/512
   2:     0.18750000    0.18750000    0.06250000         24/512
   3:     0.18750000    0.18750000    0.18750000          8/512
   4:     0.31250000    0.06250000    0.06250000         24/512
   5:     0.31250000    0.18750000    0.06250000         48/512
   6:     0.31250000    0.18750000    0.18750000         24/512
   7:     0.31250000    0.31250000    0.06250000         24/512
   8:     0.31250000    0.31250000    0.18750000         24/512
   9:     0.31250000    0.31250000    0.31250000          8/512
          ...
  19:     0.43750000    0.43750000    0.43750000          8/512

Wave functions: Plane wave expansion
  Cutoff energy: 300.000 eV
  Number of coefficients (min, max): 1234, 1268
  Pulay-stress correction: 0.000000 eV/Ang^3 (de/decut=0.000000)
  Using Numpy's FFT
  ScaLapack parameters: grid=1x1, blocksize=None
  Wavefunction extrapolation:
    Improved wavefunction reuse through dual PAW basis 

Occupation numbers: Fermi-Dirac:
  width: 0.1000  # eV
 

Eigensolver
   Davidson(niter=2) 

Densities:
  Coarse grid: 20*20*20 grid
  Fine grid: 40*40*40 grid
  Total Charge: 0.000000 

Density mixing:
  Method: separate
  Backend: pulay
  Linear mixing parameter: 0.05
  old densities: 5
  Damping of long wavelength oscillations: 50 

Hamiltonian:
  XC and Coulomb potentials evaluated on a 40*40*40 grid
  Using the PBE Exchange-Correlation functional
  External potential:
    NoExternalPotential
 

XC parameters: PBE with 2 nearest neighbor stencil

Memory estimate:
  Process memory now: 289.28 MiB
  Calculator: 11.36 MiB
    Density: 3.52 MiB
      Arrays: 1.59 MiB
      Localized functions: 1.32 MiB
      Mixer: 0.61 MiB
    Hamiltonian: 1.06 MiB
      Arrays: 1.04 MiB
      XC: 0.00 MiB
      Poisson: 0.00 MiB
      vbar: 0.03 MiB
    Wavefunctions: 6.78 MiB
      Arrays psit_nG: 3.10 MiB
      Eigensolver: 0.26 MiB
      Projections: 0.06 MiB
      Projectors: 2.66 MiB
      PW-descriptor: 0.69 MiB

Total number of cores used: 1

Number of atoms: 2
Number of atomic orbitals: 8
Number of bands in calculation: 8
Number of valence electrons: 6
Bands to converge: occupied

... initialized

Initializing position-dependent things.

Density initialized from atomic densities
Creating initial wave functions:
  8 bands from LCAO basis set

    .-----------.  
   /|           |  
  / |           |  
 *  |           |  
 |  |           |  
 |  |    Al     |  
 |  .-----------.  
 | /           /   
 |/           /    
 Al----------*     

Positions:
   0 Al     0.000000    0.000000    0.000000    ( 0.0000,  0.0000,  0.0000)
   1 Al     2.362913    2.362913    2.362913    ( 0.0000,  0.0000,  0.0000)

Unit cell:
           periodic     x           y           z      points  spacing
  1. axis:    yes    4.725825    0.000000    0.000000    20     0.2363
  2. axis:    yes    0.000000    4.725825    0.000000    20     0.2363
  3. axis:    yes    0.000000    0.000000    4.725825    20     0.2363

  Lengths:   4.725825   4.725825   4.725825
  Angles:   90.000000  90.000000  90.000000

Effective grid spacing dv^(1/3) = 0.2363

     iter     time        total  log10-change:
                         energy   eigst   dens
iter:   1 17:08:40    -3.693805
iter:   2 17:08:41    -3.692547   -2.82  -1.02
iter:   3 17:08:41    -3.671887   -2.68  -1.04
iter:   4 17:08:41    -3.670705   -4.00  -1.92
iter:   5 17:08:41    -3.670451c  -4.72  -1.93
iter:   6 17:08:42    -3.671208c  -4.83  -1.94
iter:   7 17:08:42    -3.671202c  -6.57  -3.32
iter:   8 17:08:42    -3.671205c  -7.09  -3.73
iter:   9 17:08:43    -3.671203c  -7.14  -3.56
iter:  10 17:08:43    -3.671203c  -8.18c -5.05c

Converged after 10 iterations.

Dipole moment: (-0.000000, -0.000000, -0.000000) |e|*Ang

Energy contributions relative to reference atoms: (reference = -13206.846530)

Kinetic:         -9.739680
Potential:       +6.696347
External:        +0.000000
XC:              -0.586804
Entropy (-ST):   -0.082887
Local:           +0.000377
SIC:             +0.000000
--------------------------
Free energy:     -3.712646
Extrapolated:    -3.671203

Showing only first 2 kpts
 Kpt  Band  Eigenvalues  Occupancy
  0     1     -2.36932    2.00000
  0     2      0.78216    0.00070
  0     3      0.78216    0.00070
  0     4      1.16383    0.00002

  1     1     -2.67018    2.00000
  1     2      0.44603    0.01997
  1     3      0.95874    0.00012
  1     4      1.46493    0.00000


Fermi level: -0.01365

No gap
No difference between direct/indirect transitions
Timing:                              incl.     excl.
-----------------------------------------------------------
Hamiltonian:                         0.024     0.000   0.0% |
 Atomic:                             0.017     0.000   0.0% |
  XC Correction:                     0.017     0.017   0.6% |
 Calculate atomic Hamiltonians:      0.001     0.001   0.0% |
 Communicate:                        0.000     0.000   0.0% |
 Initialize Hamiltonian:             0.000     0.000   0.0% |
 Poisson:                            0.000     0.000   0.0% |
 XC 3D grid:                         0.006     0.006   0.2% |
LCAO initialization:                 0.065     0.003   0.1% |
 LCAO eigensolver:                   0.012     0.000   0.0% |
  Calculate projections:             0.000     0.000   0.0% |
  DenseAtomicCorrection:             0.000     0.000   0.0% |
  Distribute overlap matrix:         0.000     0.000   0.0% |
  Orbital Layouts:                   0.005     0.005   0.2% |
  Potential matrix:                  0.006     0.006   0.2% |
  Sum over cells:                    0.001     0.001   0.0% |
 LCAO to grid:                       0.035     0.035   1.3% ||
 Set positions (LCAO WFS):           0.015     0.002   0.1% |
  Basic WFS set positions:           0.001     0.001   0.0% |
  Basis functions set positions:     0.000     0.000   0.0% |
  P tci:                             0.005     0.005   0.2% |
  ST tci:                            0.006     0.006   0.2% |
  mktci:                             0.001     0.001   0.0% |
PWDescriptor:                        0.002     0.002   0.1% |
SCF-cycle:                           2.624     0.008   0.3% |
 Davidson:                           2.213     0.463  16.8% |------|
  Apply H:                           0.311     0.307  11.1% |---|
   HMM T:                            0.004     0.004   0.2% |
  Subspace diag:                     0.396     0.003   0.1% |
   calc_h_matrix:                    0.339     0.017   0.6% |
    Apply H:                         0.322     0.317  11.5% |----|
     HMM T:                          0.005     0.005   0.2% |
   diagonalize:                      0.035     0.035   1.3% ||
   rotate_psi:                       0.019     0.019   0.7% |
  calc. matrices:                    0.763     0.134   4.8% |-|
   Apply H:                          0.630     0.620  22.4% |--------|
    HMM T:                           0.010     0.010   0.4% |
  diagonalize:                       0.245     0.245   8.9% |---|
  rotate_psi:                        0.034     0.034   1.2% |
 Density:                            0.173     0.000   0.0% |
  Atomic density matrices:           0.004     0.004   0.2% |
  Mix:                               0.013     0.013   0.5% |
  Multipole moments:                 0.000     0.000   0.0% |
  Pseudo density:                    0.155     0.143   5.2% |-|
   Symmetrize density:               0.012     0.012   0.4% |
 Hamiltonian:                        0.212     0.002   0.1% |
  Atomic:                            0.152     0.001   0.0% |
   XC Correction:                    0.151     0.151   5.5% |-|
  Calculate atomic Hamiltonians:     0.005     0.005   0.2% |
  Communicate:                       0.000     0.000   0.0% |
  Poisson:                           0.001     0.001   0.0% |
  XC 3D grid:                        0.052     0.052   1.9% ||
 Orthonormalize:                     0.017     0.000   0.0% |
  calc_s_matrix:                     0.001     0.001   0.0% |
  inverse-cholesky:                  0.000     0.000   0.0% |
  projections:                       0.015     0.015   0.5% |
  rotate_psi_s:                      0.001     0.001   0.0% |
Set symmetry:                        0.012     0.012   0.4% |
Other:                               0.035     0.035   1.3% ||
-----------------------------------------------------------
Total:                                         2.761 100.0%

Memory usage: 289.28 MiB
Date: Tue Feb  4 17:08:43 2025
