
  ___ ___ ___ _ _ _  
 |   |   |_  | | | | 
 | | | | | . | | | | 
 |__ |  _|___|_____|  25.1.0
 |___|_|             

User:   zoe@Zoes-MacBook-Air.local
Date:   Tue Feb  4 18:56:00 2025
Arch:   arm64
Pid:    81466
CWD:    /Users/zoe/Documents/Python/TIF320_Computitional_molecular_physics
Python: 3.12.2
gpaw:   /opt/anaconda3/envs/tif320env/lib/python3.12/site-packages/gpaw
_gpaw:  /opt/anaconda3/envs/tif320env/lib/python3.12/site-packages/
        _gpaw.cpython-312-darwin.so
ase:    /opt/anaconda3/envs/tif320env/lib/python3.12/site-packages/ase (version 3.24.0)
numpy:  /opt/anaconda3/envs/tif320env/lib/python3.12/site-packages/numpy (version 2.0.1)
scipy:  /opt/anaconda3/envs/tif320env/lib/python3.12/site-packages/scipy (version 1.15.1)
libxc:  7.0.0
units:  Angstrom and eV
cores: 1
OpenMP: False
OMP_NUM_THREADS: 1

Input parameters:
  kpts: [16 16 16]
  mode: {ecut: 350.0,
         name: pw}

System changes: positions, numbers, cell, pbc, initial_charges, initial_magmoms 

Initialize ...

species:
  Al:
    name: Aluminium
    id: 2e6447feaea722efcff26bf034b25f30
    Z: 13.0
    valence: 3
    core: 10
    charge: 0.0
    file: /opt/anaconda3/envs/tif320env/gpaw-setups/gpaw-setups-24.11.0/Al.LDA.gz
    compensation charges: {type: gauss,
                           rc: 0.34,
                           lmax: 2}
    cutoffs: {filter: 1.91,
              core: 2.36}
    projectors:
      #              energy  rcut
      - 3s(2.00)    -7.830   1.085
      - 3p(1.00)    -2.783   1.085
      -  s          19.382   1.085
      -  p          24.428   1.085
      -  d           0.000   1.085
  
    # Using partial waves for Al as LCAO basis

Reference energy: -6578.421307  # eV

Spin-paired calculation

Convergence criteria:
 Maximum [total energy] change in last 3 cyles: 0.0005 eV / valence electron
 Maximum integral of absolute [dens]ity change: 0.0001 electrons / valence electron
 Maximum integral of absolute [eigenst]ate change: 4e-08 eV^2 / valence electron
 Maximum number of scf [iter]ations: 333
 (Square brackets indicate name in SCF output, whereas a 'c' in
 the SCF output indicates the quantity has converged.)

Symmetries present (total): 48

  ( 1  0  0)  ( 1  0  0)  ( 1  0  0)  ( 1  0  0)  ( 1  0 -1)  ( 1  0 -1)
  ( 1  0 -1)  ( 1 -1  0)  ( 0  1  0)  ( 0  0  1)  ( 1  0  0)  ( 1 -1  0)
  ( 1 -1  0)  ( 1  0 -1)  ( 0  0  1)  ( 0  1  0)  ( 1 -1  0)  ( 1  0  0)

  ( 1  0 -1)  ( 1  0 -1)  ( 1 -1  0)  ( 1 -1  0)  ( 1 -1  0)  ( 1 -1  0)
  ( 0  1 -1)  ( 0  0 -1)  ( 1  0  0)  ( 1  0 -1)  ( 0 -1  1)  ( 0 -1  0)
  ( 0  0 -1)  ( 0  1 -1)  ( 1  0 -1)  ( 1  0  0)  ( 0 -1  0)  ( 0 -1  1)

  ( 0  1  0)  ( 0  1  0)  ( 0  1  0)  ( 0  1  0)  ( 0  1 -1)  ( 0  1 -1)
  ( 1  0  0)  ( 0  1 -1)  ( 0  0  1)  (-1  1  0)  ( 1  0 -1)  ( 0  1  0)
  ( 0  0  1)  (-1  1  0)  ( 1  0  0)  ( 0  1 -1)  ( 0  0 -1)  (-1  1  0)

  ( 0  1 -1)  ( 0  1 -1)  ( 0  0  1)  ( 0  0  1)  ( 0  0  1)  ( 0  0  1)
  ( 0  0 -1)  (-1  1  0)  ( 1  0  0)  ( 0  1  0)  ( 0 -1  1)  (-1  0  1)
  ( 1  0 -1)  ( 0  1  0)  ( 0  1  0)  ( 1  0  0)  (-1  0  1)  ( 0 -1  1)

  ( 0  0 -1)  ( 0  0 -1)  ( 0  0 -1)  ( 0  0 -1)  ( 0 -1  1)  ( 0 -1  1)
  ( 1  0 -1)  ( 0  1 -1)  ( 0 -1  0)  (-1  0  0)  ( 1 -1  0)  ( 0  0  1)
  ( 0  1 -1)  ( 1  0 -1)  (-1  0  0)  ( 0 -1  0)  ( 0 -1  0)  (-1  0  1)

  ( 0 -1  1)  ( 0 -1  1)  ( 0 -1  0)  ( 0 -1  0)  ( 0 -1  0)  ( 0 -1  0)
  ( 0 -1  0)  (-1  0  1)  ( 1 -1  0)  ( 0  0 -1)  ( 0 -1  1)  (-1  0  0)
  ( 1 -1  0)  ( 0  0  1)  ( 0 -1  1)  (-1  0  0)  ( 1 -1  0)  ( 0  0 -1)

  (-1  1  0)  (-1  1  0)  (-1  1  0)  (-1  1  0)  (-1  0  1)  (-1  0  1)
  ( 0  1  0)  ( 0  1 -1)  (-1  0  1)  (-1  0  0)  ( 0  0  1)  ( 0 -1  1)
  ( 0  1 -1)  ( 0  1  0)  (-1  0  0)  (-1  0  1)  ( 0 -1  1)  ( 0  0  1)

  (-1  0  1)  (-1  0  1)  (-1  0  0)  (-1  0  0)  (-1  0  0)  (-1  0  0)
  (-1  1  0)  (-1  0  0)  ( 0  0 -1)  ( 0 -1  0)  (-1  1  0)  (-1  0  1)
  (-1  0  0)  (-1  1  0)  ( 0 -1  0)  ( 0  0 -1)  (-1  0  1)  (-1  1  0)
Note: your k-points are not as symmetric as your crystal!

4096 k-points: 16 x 16 x 16 Monkhorst-Pack grid
408 k-points in the irreducible part of the Brillouin zone
       k-points in crystal coordinates                weights
   0:     0.03125000    0.03125000   -0.03125000          6/4096
   1:     0.03125000    0.03125000    0.03125000          2/4096
   2:     0.09375000   -0.03125000   -0.03125000          6/4096
   3:     0.09375000    0.03125000   -0.09375000         12/4096
   4:     0.09375000    0.03125000   -0.03125000         12/4096
   5:     0.09375000    0.03125000    0.03125000          6/4096
   6:     0.09375000    0.09375000   -0.09375000          6/4096
   7:     0.09375000    0.09375000   -0.03125000          6/4096
   8:     0.09375000    0.09375000    0.03125000          6/4096
   9:     0.09375000    0.09375000    0.09375000          2/4096
          ...
 407:     0.46875000    0.46875000    0.46875000          2/4096

Wave functions: Plane wave expansion
  Cutoff energy: 350.000 eV
  Number of coefficients (min, max): 238, 262
  Pulay-stress correction: 0.000000 eV/Ang^3 (de/decut=0.000000)
  Using Numpy's FFT
  ScaLapack parameters: grid=1x1, blocksize=None
  Wavefunction extrapolation:
    Improved wavefunction reuse through dual PAW basis 

Occupation numbers: Fermi-Dirac:
  width: 0.1000  # eV
 

Eigensolver
   Davidson(niter=2) 

Densities:
  Coarse grid: 14*14*14 grid
  Fine grid: 28*28*28 grid
  Total Charge: 0.000000 

Density mixing:
  Method: separate
  Backend: pulay
  Linear mixing parameter: 0.05
  old densities: 5
  Damping of long wavelength oscillations: 50 

Hamiltonian:
  XC and Coulomb potentials evaluated on a 28*28*28 grid
  Using the LDA Exchange-Correlation functional
  External potential:
    NoExternalPotential
 

Memory estimate:
  Process memory now: 171.30 MiB
  Calculator: 20.77 MiB
    Density: 1.02 MiB
      Arrays: 0.54 MiB
      Localized functions: 0.26 MiB
      Mixer: 0.21 MiB
    Hamiltonian: 0.36 MiB
      Arrays: 0.36 MiB
      XC: 0.00 MiB
      Poisson: 0.00 MiB
      vbar: 0.01 MiB
    Wavefunctions: 19.40 MiB
      Arrays psit_nG: 6.52 MiB
      Eigensolver: 0.04 MiB
      Projections: 0.32 MiB
      Projectors: 10.77 MiB
      PW-descriptor: 1.74 MiB

Total number of cores used: 1

Number of atoms: 1
Number of atomic orbitals: 4
Number of bands in calculation: 4
Number of valence electrons: 3
Bands to converge: occupied

... initialized

Initializing position-dependent things.

Density initialized from atomic densities
Creating initial wave functions:
  4 bands from LCAO basis set

                
                
                
       Al       
                
                
                
                

Positions:
   0 Al     0.000000    0.000000    0.000000    ( 0.0000,  0.0000,  0.0000)

Unit cell:
           periodic     x           y           z      points  spacing
  1. axis:    yes    0.000000    2.025000    2.025000    14     0.1670
  2. axis:    yes    2.025000    0.000000    2.025000    14     0.1670
  3. axis:    yes    2.025000    2.025000    0.000000    14     0.1670

  Lengths:   2.863782   2.863782   2.863782
  Angles:   60.000000  60.000000  60.000000

Effective grid spacing dv^(1/3) = 0.1822

     iter     time        total  log10-change:
                         energy   eigst   dens
iter:   1 18:56:02    -4.173278
iter:   2 18:56:03    -4.174148   -2.64  -0.95
iter:   3 18:56:04    -4.171119   -2.74  -0.96
iter:   4 18:56:06    -4.169044   -3.97  -1.21
iter:   5 18:56:07    -4.169379   -5.35  -2.16
iter:   6 18:56:08    -4.169115c  -5.02  -1.98
iter:   7 18:56:09    -4.169109c  -6.62  -2.69
iter:   8 18:56:11    -4.169109c  -8.28c -3.74
iter:   9 18:56:12    -4.169109c  -9.88c -4.13c

Converged after 9 iterations.

Dipole moment: (0.000000, -0.000000, -0.000000) |e|*Ang

Energy contributions relative to reference atoms: (reference = -6578.421307)

Kinetic:         +3.885962
Potential:       -2.015195
External:        +0.000000
XC:              -6.028559
Entropy (-ST):   -0.013646
Local:           -0.004493
SIC:             +0.000000
--------------------------
Free energy:     -4.175932
Extrapolated:    -4.169109

Showing only first 2 kpts
 Kpt  Band  Eigenvalues  Occupancy
  0     0     -4.06881    2.00000
  0     1     18.03084    0.00000
  0     2     18.60797    0.00000

  1     0     -4.13916    2.00000
  1     1     18.79924    0.00000
  1     2     19.43105    0.00000


Fermi level: 6.88861

No gap
No difference between direct/indirect transitions
Timing:                              incl.     excl.
-----------------------------------------------------------
Hamiltonian:                         0.004     0.000   0.0% |
 Atomic:                             0.003     0.000   0.0% |
  XC Correction:                     0.003     0.003   0.0% |
 Calculate atomic Hamiltonians:      0.000     0.000   0.0% |
 Communicate:                        0.000     0.000   0.0% |
 Initialize Hamiltonian:             0.000     0.000   0.0% |
 Poisson:                            0.000     0.000   0.0% |
 XC 3D grid:                         0.001     0.001   0.0% |
LCAO initialization:                 0.680     0.005   0.0% |
 LCAO eigensolver:                   0.084     0.002   0.0% |
  Calculate projections:             0.001     0.001   0.0% |
  DenseAtomicCorrection:             0.004     0.004   0.0% |
  Distribute overlap matrix:         0.001     0.001   0.0% |
  Orbital Layouts:                   0.045     0.045   0.4% |
  Potential matrix:                  0.020     0.020   0.2% |
  Sum over cells:                    0.012     0.012   0.1% |
 LCAO to grid:                       0.330     0.330   2.8% ||
 Set positions (LCAO WFS):           0.260     0.036   0.3% |
  Basic WFS set positions:           0.000     0.000   0.0% |
  Basis functions set positions:     0.000     0.000   0.0% |
  P tci:                             0.062     0.062   0.5% |
  ST tci:                            0.158     0.158   1.3% ||
  mktci:                             0.003     0.003   0.0% |
PWDescriptor:                        0.014     0.014   0.1% |
SCF-cycle:                          11.071     0.107   0.9% |
 Davidson:                          10.191     0.796   6.7% |--|
  Apply H:                           1.556     1.528  12.8% |----|
   HMM T:                            0.028     0.028   0.2% |
  Subspace diag:                     2.041     0.044   0.4% |
   calc_h_matrix:                    1.677     0.110   0.9% |
    Apply H:                         1.567     1.538  12.9% |----|
     HMM T:                          0.029     0.029   0.2% |
   diagonalize:                      0.274     0.274   2.3% ||
   rotate_psi:                       0.047     0.047   0.4% |
  calc. matrices:                    3.687     0.602   5.0% |-|
   Apply H:                          3.085     3.032  25.4% |---------|
    HMM T:                           0.053     0.053   0.4% |
  diagonalize:                       2.041     2.041  17.1% |------|
  rotate_psi:                        0.070     0.070   0.6% |
 Density:                            0.716     0.000   0.0% |
  Atomic density matrices:           0.012     0.012   0.1% |
  Mix:                               0.005     0.005   0.0% |
  Multipole moments:                 0.000     0.000   0.0% |
  Pseudo density:                    0.699     0.695   5.8% |-|
   Symmetrize density:               0.004     0.004   0.0% |
 Hamiltonian:                        0.031     0.001   0.0% |
  Atomic:                            0.022     0.001   0.0% |
   XC Correction:                    0.022     0.022   0.2% |
  Calculate atomic Hamiltonians:     0.001     0.001   0.0% |
  Communicate:                       0.000     0.000   0.0% |
  Poisson:                           0.000     0.000   0.0% |
  XC 3D grid:                        0.007     0.007   0.1% |
 Orthonormalize:                     0.026     0.004   0.0% |
  calc_s_matrix:                     0.007     0.007   0.1% |
  inverse-cholesky:                  0.004     0.004   0.0% |
  projections:                       0.009     0.009   0.1% |
  rotate_psi_s:                      0.002     0.002   0.0% |
Set symmetry:                        0.123     0.123   1.0% |
Other:                               0.060     0.060   0.5% |
-----------------------------------------------------------
Total:                                        11.951 100.0%

Memory usage: 182.03 MiB
Date: Tue Feb  4 18:56:12 2025
