
  ___ ___ ___ _ _ _  
 |   |   |_  | | | | 
 | | | | | . | | | | 
 |__ |  _|___|_____|  25.1.0
 |___|_|             

User:   zoe@Zoes-MacBook-Air.local
Date:   Tue Feb  4 17:08:57 2025
Arch:   arm64
Pid:    80761
CWD:    /Users/zoe/Documents/Python/TIF320_Computitional_molecular_physics
Python: 3.12.2
gpaw:   /opt/anaconda3/envs/tif320env/lib/python3.12/site-packages/gpaw
_gpaw:  /opt/anaconda3/envs/tif320env/lib/python3.12/site-packages/
        _gpaw.cpython-312-darwin.so
ase:    /opt/anaconda3/envs/tif320env/lib/python3.12/site-packages/ase (version 3.24.0)
numpy:  /opt/anaconda3/envs/tif320env/lib/python3.12/site-packages/numpy (version 2.0.1)
scipy:  /opt/anaconda3/envs/tif320env/lib/python3.12/site-packages/scipy (version 1.15.1)
libxc:  7.0.0
units:  Angstrom and eV
cores: 1
OpenMP: False
OMP_NUM_THREADS: 1

Input parameters:
  kpts: [8 8 8]
  mode: {ecut: 300.0,
         name: pw}
  xc: PBE

System changes: positions, numbers, cell, pbc, initial_charges, initial_magmoms 

Initialize ...

species:
  Al:
    name: Aluminium
    id: 0292cae29f5d6237e50f6abdd43a7bdd
    Z: 13.0
    valence: 3
    core: 10
    charge: 0.0
    file: /opt/anaconda3/envs/tif320env/gpaw-setups/gpaw-setups-24.11.0/Al.PBE.gz
    compensation charges: {type: gauss,
                           rc: 0.34,
                           lmax: 2}
    cutoffs: {filter: 1.91,
              core: 2.36}
    projectors:
      #              energy  rcut
      - 3s(2.00)    -7.753   1.085
      - 3p(1.00)    -2.712   1.085
      -  s          19.459   1.085
      -  p          24.499   1.085
      -  d           0.000   1.085
  
    # Using partial waves for Al as LCAO basis

Reference energy: -13206.846530  # eV

Spin-paired calculation

Convergence criteria:
 Maximum [total energy] change in last 3 cyles: 0.0005 eV / valence electron
 Maximum integral of absolute [dens]ity change: 0.0001 electrons / valence electron
 Maximum integral of absolute [eigenst]ate change: 4e-08 eV^2 / valence electron
 Maximum number of scf [iter]ations: 333
 (Square brackets indicate name in SCF output, whereas a 'c' in
 the SCF output indicates the quantity has converged.)

Symmetries present (total): 48

  ( 1  0  0)  ( 1  0  0)  ( 1  0  0)  ( 1  0  0)  ( 1  0  0)  ( 1  0  0)
  ( 0  1  0)  ( 0  1  0)  ( 0  0  1)  ( 0  0  1)  ( 0  0 -1)  ( 0  0 -1)
  ( 0  0  1)  ( 0  0 -1)  ( 0  1  0)  ( 0 -1  0)  ( 0  1  0)  ( 0 -1  0)

  ( 1  0  0)  ( 1  0  0)  ( 0  1  0)  ( 0  1  0)  ( 0  1  0)  ( 0  1  0)
  ( 0 -1  0)  ( 0 -1  0)  ( 1  0  0)  ( 1  0  0)  ( 0  0  1)  ( 0  0  1)
  ( 0  0  1)  ( 0  0 -1)  ( 0  0  1)  ( 0  0 -1)  ( 1  0  0)  (-1  0  0)

  ( 0  1  0)  ( 0  1  0)  ( 0  1  0)  ( 0  1  0)  ( 0  0  1)  ( 0  0  1)
  ( 0  0 -1)  ( 0  0 -1)  (-1  0  0)  (-1  0  0)  ( 1  0  0)  ( 1  0  0)
  ( 1  0  0)  (-1  0  0)  ( 0  0  1)  ( 0  0 -1)  ( 0  1  0)  ( 0 -1  0)

  ( 0  0  1)  ( 0  0  1)  ( 0  0  1)  ( 0  0  1)  ( 0  0  1)  ( 0  0  1)
  ( 0  1  0)  ( 0  1  0)  ( 0 -1  0)  ( 0 -1  0)  (-1  0  0)  (-1  0  0)
  ( 1  0  0)  (-1  0  0)  ( 1  0  0)  (-1  0  0)  ( 0  1  0)  ( 0 -1  0)

  ( 0  0 -1)  ( 0  0 -1)  ( 0  0 -1)  ( 0  0 -1)  ( 0  0 -1)  ( 0  0 -1)
  ( 1  0  0)  ( 1  0  0)  ( 0  1  0)  ( 0  1  0)  ( 0 -1  0)  ( 0 -1  0)
  ( 0  1  0)  ( 0 -1  0)  ( 1  0  0)  (-1  0  0)  ( 1  0  0)  (-1  0  0)

  ( 0  0 -1)  ( 0  0 -1)  ( 0 -1  0)  ( 0 -1  0)  ( 0 -1  0)  ( 0 -1  0)
  (-1  0  0)  (-1  0  0)  ( 1  0  0)  ( 1  0  0)  ( 0  0  1)  ( 0  0  1)
  ( 0  1  0)  ( 0 -1  0)  ( 0  0  1)  ( 0  0 -1)  ( 1  0  0)  (-1  0  0)

  ( 0 -1  0)  ( 0 -1  0)  ( 0 -1  0)  ( 0 -1  0)  (-1  0  0)  (-1  0  0)
  ( 0  0 -1)  ( 0  0 -1)  (-1  0  0)  (-1  0  0)  ( 0  1  0)  ( 0  1  0)
  ( 1  0  0)  (-1  0  0)  ( 0  0  1)  ( 0  0 -1)  ( 0  0  1)  ( 0  0 -1)

  (-1  0  0)  (-1  0  0)  (-1  0  0)  (-1  0  0)  (-1  0  0)  (-1  0  0)
  ( 0  0  1)  ( 0  0  1)  ( 0  0 -1)  ( 0  0 -1)  ( 0 -1  0)  ( 0 -1  0)
  ( 0  1  0)  ( 0 -1  0)  ( 0  1  0)  ( 0 -1  0)  ( 0  0  1)  ( 0  0 -1)

512 k-points: 8 x 8 x 8 Monkhorst-Pack grid
20 k-points in the irreducible part of the Brillouin zone
       k-points in crystal coordinates                weights
   0:     0.06250000    0.06250000    0.06250000          8/512
   1:     0.18750000    0.06250000    0.06250000         24/512
   2:     0.18750000    0.18750000    0.06250000         24/512
   3:     0.18750000    0.18750000    0.18750000          8/512
   4:     0.31250000    0.06250000    0.06250000         24/512
   5:     0.31250000    0.18750000    0.06250000         48/512
   6:     0.31250000    0.18750000    0.18750000         24/512
   7:     0.31250000    0.31250000    0.06250000         24/512
   8:     0.31250000    0.31250000    0.18750000         24/512
   9:     0.31250000    0.31250000    0.31250000          8/512
          ...
  19:     0.43750000    0.43750000    0.43750000          8/512

Wave functions: Plane wave expansion
  Cutoff energy: 300.000 eV
  Number of coefficients (min, max): 1460, 1487
  Pulay-stress correction: 0.000000 eV/Ang^3 (de/decut=0.000000)
  Using Numpy's FFT
  ScaLapack parameters: grid=1x1, blocksize=None
  Wavefunction extrapolation:
    Improved wavefunction reuse through dual PAW basis 

Occupation numbers: Fermi-Dirac:
  width: 0.1000  # eV
 

Eigensolver
   Davidson(niter=2) 

Densities:
  Coarse grid: 20*20*20 grid
  Fine grid: 40*40*40 grid
  Total Charge: 0.000000 

Density mixing:
  Method: separate
  Backend: pulay
  Linear mixing parameter: 0.05
  old densities: 5
  Damping of long wavelength oscillations: 50 

Hamiltonian:
  XC and Coulomb potentials evaluated on a 40*40*40 grid
  Using the PBE Exchange-Correlation functional
  External potential:
    NoExternalPotential
 

XC parameters: PBE with 2 nearest neighbor stencil

Memory estimate:
  Process memory now: 291.67 MiB
  Calculator: 12.74 MiB
    Density: 3.76 MiB
      Arrays: 1.59 MiB
      Localized functions: 1.56 MiB
      Mixer: 0.61 MiB
    Hamiltonian: 1.07 MiB
      Arrays: 1.04 MiB
      XC: 0.00 MiB
      Poisson: 0.00 MiB
      vbar: 0.03 MiB
    Wavefunctions: 7.91 MiB
      Arrays psit_nG: 3.63 MiB
      Eigensolver: 0.30 MiB
      Projections: 0.06 MiB
      Projectors: 3.15 MiB
      PW-descriptor: 0.76 MiB

Total number of cores used: 1

Number of atoms: 2
Number of atomic orbitals: 8
Number of bands in calculation: 8
Number of valence electrons: 6
Bands to converge: occupied

... initialized

Initializing position-dependent things.

Density initialized from atomic densities
Creating initial wave functions:
  8 bands from LCAO basis set

    .-----------.  
   /|           |  
  / |           |  
 *  |           |  
 |  |           |  
 |  |    Al     |  
 |  .-----------.  
 | /           /   
 |/           /    
 Al----------*     

Positions:
   0 Al     0.000000    0.000000    0.000000    ( 0.0000,  0.0000,  0.0000)
   1 Al     2.501801    2.501801    2.501801    ( 0.0000,  0.0000,  0.0000)

Unit cell:
           periodic     x           y           z      points  spacing
  1. axis:    yes    5.003603    0.000000    0.000000    20     0.2502
  2. axis:    yes    0.000000    5.003603    0.000000    20     0.2502
  3. axis:    yes    0.000000    0.000000    5.003603    20     0.2502

  Lengths:   5.003603   5.003603   5.003603
  Angles:   90.000000  90.000000  90.000000

Effective grid spacing dv^(1/3) = 0.2502

     iter     time        total  log10-change:
                         energy   eigst   dens
iter:   1 17:08:58    -3.134655
iter:   2 17:08:58    -3.133724   -2.76  -1.02
iter:   3 17:08:58    -3.115170   -2.66  -1.04
iter:   4 17:08:59    -3.114828   -3.96  -1.98
iter:   5 17:08:59    -3.115171c  -4.54  -2.00
iter:   6 17:08:59    -3.115283c  -4.02  -1.94
iter:   7 17:09:00    -3.115238c  -5.42  -2.50
iter:   8 17:09:00    -3.115207c  -6.48  -2.68
iter:   9 17:09:00    -3.115178c  -6.15  -2.87
iter:  10 17:09:01    -3.115178c  -7.41c -3.48
iter:  11 17:09:01    -3.115178c  -8.43c -4.46c

Converged after 11 iterations.

Dipole moment: (-0.000000, -0.000000, 0.000000) |e|*Ang

Energy contributions relative to reference atoms: (reference = -13206.846530)

Kinetic:         -8.900126
Potential:       +5.885678
External:        +0.000000
XC:              -0.052730
Entropy (-ST):   -0.095813
Local:           -0.000094
SIC:             +0.000000
--------------------------
Free energy:     -3.163085
Extrapolated:    -3.115178

Showing only first 2 kpts
 Kpt  Band  Eigenvalues  Occupancy
  0     1     -3.36396    2.00000
  0     2      0.22057    0.00186
  0     3      0.22057    0.00186
  0     4      0.50541    0.00011

  1     1     -3.55713    2.00000
  1     2     -0.07117    0.03390
  1     3      0.37135    0.00041
  1     4      0.74561    0.00001


Fermi level: -0.47721

No gap
No difference between direct/indirect transitions
Timing:                              incl.     excl.
-----------------------------------------------------------
Hamiltonian:                         0.024     0.000   0.0% |
 Atomic:                             0.017     0.000   0.0% |
  XC Correction:                     0.017     0.017   0.5% |
 Calculate atomic Hamiltonians:      0.001     0.001   0.0% |
 Communicate:                        0.000     0.000   0.0% |
 Initialize Hamiltonian:             0.000     0.000   0.0% |
 Poisson:                            0.000     0.000   0.0% |
 XC 3D grid:                         0.006     0.006   0.2% |
LCAO initialization:                 0.060     0.004   0.1% |
 LCAO eigensolver:                   0.010     0.000   0.0% |
  Calculate projections:             0.000     0.000   0.0% |
  DenseAtomicCorrection:             0.000     0.000   0.0% |
  Distribute overlap matrix:         0.000     0.000   0.0% |
  Orbital Layouts:                   0.005     0.005   0.1% |
  Potential matrix:                  0.004     0.004   0.1% |
  Sum over cells:                    0.001     0.001   0.0% |
 LCAO to grid:                       0.032     0.032   0.9% |
 Set positions (LCAO WFS):           0.013     0.002   0.0% |
  Basic WFS set positions:           0.001     0.001   0.0% |
  Basis functions set positions:     0.000     0.000   0.0% |
  P tci:                             0.005     0.005   0.1% |
  ST tci:                            0.005     0.005   0.1% |
  mktci:                             0.001     0.001   0.0% |
PWDescriptor:                        0.003     0.003   0.1% |
SCF-cycle:                           3.303     0.009   0.3% |
 Davidson:                           2.849     0.921  26.8% |----------|
  Apply H:                           0.348     0.343  10.0% |---|
   HMM T:                            0.005     0.005   0.1% |
  Subspace diag:                     0.425     0.003   0.1% |
   calc_h_matrix:                    0.362     0.018   0.5% |
    Apply H:                         0.345     0.339   9.9% |---|
     HMM T:                          0.006     0.006   0.2% |
   diagonalize:                      0.039     0.039   1.1% |
   rotate_psi:                       0.021     0.021   0.6% |
  calc. matrices:                    0.835     0.145   4.2% |-|
   Apply H:                          0.690     0.679  19.7% |-------|
    HMM T:                           0.011     0.011   0.3% |
  diagonalize:                       0.282     0.282   8.2% |--|
  rotate_psi:                        0.038     0.038   1.1% |
 Density:                            0.190     0.000   0.0% |
  Atomic density matrices:           0.005     0.005   0.1% |
  Mix:                               0.014     0.014   0.4% |
  Multipole moments:                 0.000     0.000   0.0% |
  Pseudo density:                    0.171     0.158   4.6% |-|
   Symmetrize density:               0.013     0.013   0.4% |
 Hamiltonian:                        0.234     0.001   0.0% |
  Atomic:                            0.170     0.001   0.0% |
   XC Correction:                    0.169     0.169   4.9% |-|
  Calculate atomic Hamiltonians:     0.006     0.006   0.2% |
  Communicate:                       0.000     0.000   0.0% |
  Poisson:                           0.000     0.000   0.0% |
  XC 3D grid:                        0.056     0.056   1.6% ||
 Orthonormalize:                     0.021     0.000   0.0% |
  calc_s_matrix:                     0.001     0.001   0.0% |
  inverse-cholesky:                  0.000     0.000   0.0% |
  projections:                       0.018     0.018   0.5% |
  rotate_psi_s:                      0.001     0.001   0.0% |
Set symmetry:                        0.012     0.012   0.4% |
Other:                               0.037     0.037   1.1% |
-----------------------------------------------------------
Total:                                         3.438 100.0%

Memory usage: 291.72 MiB
Date: Tue Feb  4 17:09:01 2025
