
  ___ ___ ___ _ _ _  
 |   |   |_  | | | | 
 | | | | | . | | | | 
 |__ |  _|___|_____|  25.1.0
 |___|_|             

User:   zoe@Zoes-MacBook-Air.local
Date:   Tue Feb  4 17:09:16 2025
Arch:   arm64
Pid:    80761
CWD:    /Users/zoe/Documents/Python/TIF320_Computitional_molecular_physics
Python: 3.12.2
gpaw:   /opt/anaconda3/envs/tif320env/lib/python3.12/site-packages/gpaw
_gpaw:  /opt/anaconda3/envs/tif320env/lib/python3.12/site-packages/
        _gpaw.cpython-312-darwin.so
ase:    /opt/anaconda3/envs/tif320env/lib/python3.12/site-packages/ase (version 3.24.0)
numpy:  /opt/anaconda3/envs/tif320env/lib/python3.12/site-packages/numpy (version 2.0.1)
scipy:  /opt/anaconda3/envs/tif320env/lib/python3.12/site-packages/scipy (version 1.15.1)
libxc:  7.0.0
units:  Angstrom and eV
cores: 1
OpenMP: False
OMP_NUM_THREADS: 1

Input parameters:
  kpts: [8 8 8]
  mode: {ecut: 300.0,
         name: pw}
  xc: PBE

System changes: positions, numbers, cell, pbc, initial_charges, initial_magmoms 

Initialize ...

species:
  Al:
    name: Aluminium
    id: 0292cae29f5d6237e50f6abdd43a7bdd
    Z: 13.0
    valence: 3
    core: 10
    charge: 0.0
    file: /opt/anaconda3/envs/tif320env/gpaw-setups/gpaw-setups-24.11.0/Al.PBE.gz
    compensation charges: {type: gauss,
                           rc: 0.34,
                           lmax: 2}
    cutoffs: {filter: 1.91,
              core: 2.36}
    projectors:
      #              energy  rcut
      - 3s(2.00)    -7.753   1.085
      - 3p(1.00)    -2.712   1.085
      -  s          19.459   1.085
      -  p          24.499   1.085
      -  d           0.000   1.085
  
    # Using partial waves for Al as LCAO basis

Reference energy: -13206.846530  # eV

Spin-paired calculation

Convergence criteria:
 Maximum [total energy] change in last 3 cyles: 0.0005 eV / valence electron
 Maximum integral of absolute [dens]ity change: 0.0001 electrons / valence electron
 Maximum integral of absolute [eigenst]ate change: 4e-08 eV^2 / valence electron
 Maximum number of scf [iter]ations: 333
 (Square brackets indicate name in SCF output, whereas a 'c' in
 the SCF output indicates the quantity has converged.)

Symmetries present (total): 48

  ( 1  0  0)  ( 1  0  0)  ( 1  0  0)  ( 1  0  0)  ( 1  0  0)  ( 1  0  0)
  ( 0  1  0)  ( 0  1  0)  ( 0  0  1)  ( 0  0  1)  ( 0  0 -1)  ( 0  0 -1)
  ( 0  0  1)  ( 0  0 -1)  ( 0  1  0)  ( 0 -1  0)  ( 0  1  0)  ( 0 -1  0)

  ( 1  0  0)  ( 1  0  0)  ( 0  1  0)  ( 0  1  0)  ( 0  1  0)  ( 0  1  0)
  ( 0 -1  0)  ( 0 -1  0)  ( 1  0  0)  ( 1  0  0)  ( 0  0  1)  ( 0  0  1)
  ( 0  0  1)  ( 0  0 -1)  ( 0  0  1)  ( 0  0 -1)  ( 1  0  0)  (-1  0  0)

  ( 0  1  0)  ( 0  1  0)  ( 0  1  0)  ( 0  1  0)  ( 0  0  1)  ( 0  0  1)
  ( 0  0 -1)  ( 0  0 -1)  (-1  0  0)  (-1  0  0)  ( 1  0  0)  ( 1  0  0)
  ( 1  0  0)  (-1  0  0)  ( 0  0  1)  ( 0  0 -1)  ( 0  1  0)  ( 0 -1  0)

  ( 0  0  1)  ( 0  0  1)  ( 0  0  1)  ( 0  0  1)  ( 0  0  1)  ( 0  0  1)
  ( 0  1  0)  ( 0  1  0)  ( 0 -1  0)  ( 0 -1  0)  (-1  0  0)  (-1  0  0)
  ( 1  0  0)  (-1  0  0)  ( 1  0  0)  (-1  0  0)  ( 0  1  0)  ( 0 -1  0)

  ( 0  0 -1)  ( 0  0 -1)  ( 0  0 -1)  ( 0  0 -1)  ( 0  0 -1)  ( 0  0 -1)
  ( 1  0  0)  ( 1  0  0)  ( 0  1  0)  ( 0  1  0)  ( 0 -1  0)  ( 0 -1  0)
  ( 0  1  0)  ( 0 -1  0)  ( 1  0  0)  (-1  0  0)  ( 1  0  0)  (-1  0  0)

  ( 0  0 -1)  ( 0  0 -1)  ( 0 -1  0)  ( 0 -1  0)  ( 0 -1  0)  ( 0 -1  0)
  (-1  0  0)  (-1  0  0)  ( 1  0  0)  ( 1  0  0)  ( 0  0  1)  ( 0  0  1)
  ( 0  1  0)  ( 0 -1  0)  ( 0  0  1)  ( 0  0 -1)  ( 1  0  0)  (-1  0  0)

  ( 0 -1  0)  ( 0 -1  0)  ( 0 -1  0)  ( 0 -1  0)  (-1  0  0)  (-1  0  0)
  ( 0  0 -1)  ( 0  0 -1)  (-1  0  0)  (-1  0  0)  ( 0  1  0)  ( 0  1  0)
  ( 1  0  0)  (-1  0  0)  ( 0  0  1)  ( 0  0 -1)  ( 0  0  1)  ( 0  0 -1)

  (-1  0  0)  (-1  0  0)  (-1  0  0)  (-1  0  0)  (-1  0  0)  (-1  0  0)
  ( 0  0  1)  ( 0  0  1)  ( 0  0 -1)  ( 0  0 -1)  ( 0 -1  0)  ( 0 -1  0)
  ( 0  1  0)  ( 0 -1  0)  ( 0  1  0)  ( 0 -1  0)  ( 0  0  1)  ( 0  0 -1)

512 k-points: 8 x 8 x 8 Monkhorst-Pack grid
20 k-points in the irreducible part of the Brillouin zone
       k-points in crystal coordinates                weights
   0:     0.06250000    0.06250000    0.06250000          8/512
   1:     0.18750000    0.06250000    0.06250000         24/512
   2:     0.18750000    0.18750000    0.06250000         24/512
   3:     0.18750000    0.18750000    0.18750000          8/512
   4:     0.31250000    0.06250000    0.06250000         24/512
   5:     0.31250000    0.18750000    0.06250000         48/512
   6:     0.31250000    0.18750000    0.18750000         24/512
   7:     0.31250000    0.31250000    0.06250000         24/512
   8:     0.31250000    0.31250000    0.18750000         24/512
   9:     0.31250000    0.31250000    0.31250000          8/512
          ...
  19:     0.43750000    0.43750000    0.43750000          8/512

Wave functions: Plane wave expansion
  Cutoff energy: 300.000 eV
  Number of coefficients (min, max): 1677, 1704
  Pulay-stress correction: 0.000000 eV/Ang^3 (de/decut=0.000000)
  Using Numpy's FFT
  ScaLapack parameters: grid=1x1, blocksize=None
  Wavefunction extrapolation:
    Improved wavefunction reuse through dual PAW basis 

Occupation numbers: Fermi-Dirac:
  width: 0.1000  # eV
 

Eigensolver
   Davidson(niter=2) 

Densities:
  Coarse grid: 21*21*21 grid
  Fine grid: 42*42*42 grid
  Total Charge: 0.000000 

Density mixing:
  Method: separate
  Backend: pulay
  Linear mixing parameter: 0.05
  old densities: 5
  Damping of long wavelength oscillations: 50 

Hamiltonian:
  XC and Coulomb potentials evaluated on a 42*42*42 grid
  Using the PBE Exchange-Correlation functional
  External potential:
    NoExternalPotential
 

XC parameters: PBE with 2 nearest neighbor stencil

Memory estimate:
  Process memory now: 296.56 MiB
  Calculator: 14.61 MiB
    Density: 4.32 MiB
      Arrays: 1.84 MiB
      Localized functions: 1.78 MiB
      Mixer: 0.71 MiB
    Hamiltonian: 1.24 MiB
      Arrays: 1.20 MiB
      XC: 0.00 MiB
      Poisson: 0.00 MiB
      vbar: 0.04 MiB
    Wavefunctions: 9.05 MiB
      Arrays psit_nG: 4.16 MiB
      Eigensolver: 0.35 MiB
      Projections: 0.06 MiB
      Projectors: 3.60 MiB
      PW-descriptor: 0.87 MiB

Total number of cores used: 1

Number of atoms: 2
Number of atomic orbitals: 8
Number of bands in calculation: 8
Number of valence electrons: 6
Bands to converge: occupied

... initialized

Initializing position-dependent things.

Density initialized from atomic densities
Creating initial wave functions:
  8 bands from LCAO basis set

    .------------.  
   /|            |  
  / |            |  
 *  |            |  
 |  |            |  
 |  |    Al      |  
 |  .------------.  
 | /            /   
 |/            /    
 Al-----------*     

Positions:
   0 Al     0.000000    0.000000    0.000000    ( 0.0000,  0.0000,  0.0000)
   1 Al     2.612913    2.612913    2.612913    ( 0.0000,  0.0000,  0.0000)

Unit cell:
           periodic     x           y           z      points  spacing
  1. axis:    yes    5.225825    0.000000    0.000000    21     0.2488
  2. axis:    yes    0.000000    5.225825    0.000000    21     0.2488
  3. axis:    yes    0.000000    0.000000    5.225825    21     0.2488

  Lengths:   5.225825   5.225825   5.225825
  Angles:   90.000000  90.000000  90.000000

Effective grid spacing dv^(1/3) = 0.2488

     iter     time        total  log10-change:
                         energy   eigst   dens
iter:   1 17:09:16    -2.744000
iter:   2 17:09:16    -2.743385   -2.73  -1.01
iter:   3 17:09:17    -2.727895   -2.57  -1.03
iter:   4 17:09:17    -2.727805   -3.79  -1.86
iter:   5 17:09:18    -2.727604c  -4.73  -1.86
iter:   6 17:09:18    -2.729651c  -4.40  -1.87
iter:   7 17:09:19    -2.753693   -2.89  -1.66
iter:   8 17:09:19    -2.731575   -2.49  -1.14
iter:   9 17:09:19    -2.727606   -3.94  -1.65
iter:  10 17:09:20    -2.727604   -5.93  -3.11
iter:  11 17:09:20    -2.727599c  -7.08  -3.29
iter:  12 17:09:21    -2.727606c  -7.34  -3.53
iter:  13 17:09:21    -2.727604c  -7.80c -3.23
iter:  14 17:09:21    -2.727604c  -9.04c -3.23
iter:  15 17:09:22    -2.727597c  -6.79  -3.25
iter:  16 17:09:22    -2.727596c  -6.86  -3.77
iter:  17 17:09:22    -2.727596c  -7.71c -5.08c

Converged after 17 iterations.

Dipole moment: (0.000000, 0.000000, -0.000000) |e|*Ang

Energy contributions relative to reference atoms: (reference = -13206.846530)

Kinetic:         -8.219782
Potential:       +5.293776
External:        +0.000000
XC:              +0.254774
Entropy (-ST):   -0.110526
Local:           -0.001101
SIC:             +0.000000
--------------------------
Free energy:     -2.782859
Extrapolated:    -2.727596

Showing only first 2 kpts
 Kpt  Band  Eigenvalues  Occupancy
  0     1     -4.00804    2.00000
  0     2     -0.14823    0.00411
  0     3     -0.14823    0.00411
  0     4      0.08150    0.00041

  1     1     -4.14626    2.00000
  1     2     -0.40226    0.05087
  1     3     -0.01557    0.00109
  1     4      0.28431    0.00005


Fermi level: -0.76685

No gap
No difference between direct/indirect transitions
Timing:                              incl.     excl.
-----------------------------------------------------------
Hamiltonian:                         0.024     0.000   0.0% |
 Atomic:                             0.017     0.000   0.0% |
  XC Correction:                     0.017     0.017   0.3% |
 Calculate atomic Hamiltonians:      0.001     0.001   0.0% |
 Communicate:                        0.000     0.000   0.0% |
 Initialize Hamiltonian:             0.000     0.000   0.0% |
 Poisson:                            0.000     0.000   0.0% |
 XC 3D grid:                         0.006     0.006   0.1% |
LCAO initialization:                 0.061     0.004   0.1% |
 LCAO eigensolver:                   0.011     0.000   0.0% |
  Calculate projections:             0.000     0.000   0.0% |
  DenseAtomicCorrection:             0.000     0.000   0.0% |
  Distribute overlap matrix:         0.000     0.000   0.0% |
  Orbital Layouts:                   0.005     0.005   0.1% |
  Potential matrix:                  0.004     0.004   0.1% |
  Sum over cells:                    0.001     0.001   0.0% |
 LCAO to grid:                       0.035     0.035   0.5% |
 Set positions (LCAO WFS):           0.011     0.002   0.0% |
  Basic WFS set positions:           0.001     0.001   0.0% |
  Basis functions set positions:     0.000     0.000   0.0% |
  P tci:                             0.005     0.005   0.1% |
  ST tci:                            0.003     0.003   0.1% |
  mktci:                             0.001     0.001   0.0% |
PWDescriptor:                        0.002     0.002   0.0% |
SCF-cycle:                           6.311     0.014   0.2% |
 Davidson:                           5.520     2.064  32.0% |------------|
  Apply H:                           0.629     0.620   9.6% |---|
   HMM T:                            0.008     0.008   0.1% |
  Subspace diag:                     0.755     0.005   0.1% |
   calc_h_matrix:                    0.646     0.033   0.5% |
    Apply H:                         0.613     0.604   9.4% |---|
     HMM T:                          0.009     0.009   0.1% |
   diagonalize:                      0.064     0.064   1.0% |
   rotate_psi:                       0.041     0.041   0.6% |
  calc. matrices:                    1.535     0.319   4.9% |-|
   Apply H:                          1.216     1.199  18.6% |------|
    HMM T:                           0.018     0.018   0.3% |
  diagonalize:                       0.457     0.457   7.1% |--|
  rotate_psi:                        0.079     0.079   1.2% |
 Density:                            0.366     0.000   0.0% |
  Atomic density matrices:           0.008     0.008   0.1% |
  Mix:                               0.027     0.027   0.4% |
  Multipole moments:                 0.000     0.000   0.0% |
  Pseudo density:                    0.330     0.306   4.7% |-|
   Symmetrize density:               0.025     0.025   0.4% |
 Hamiltonian:                        0.390     0.003   0.0% |
  Atomic:                            0.270     0.002   0.0% |
   XC Correction:                    0.268     0.268   4.2% |-|
  Calculate atomic Hamiltonians:     0.011     0.011   0.2% |
  Communicate:                       0.000     0.000   0.0% |
  Poisson:                           0.001     0.001   0.0% |
  XC 3D grid:                        0.105     0.105   1.6% ||
 Orthonormalize:                     0.021     0.000   0.0% |
  calc_s_matrix:                     0.001     0.001   0.0% |
  inverse-cholesky:                  0.000     0.000   0.0% |
  projections:                       0.018     0.018   0.3% |
  rotate_psi_s:                      0.001     0.001   0.0% |
Set symmetry:                        0.012     0.012   0.2% |
Other:                               0.037     0.037   0.6% |
-----------------------------------------------------------
Total:                                         6.447 100.0%

Memory usage: 297.70 MiB
Date: Tue Feb  4 17:09:22 2025
