
  ___ ___ ___ _ _ _  
 |   |   |_  | | | | 
 | | | | | . | | | | 
 |__ |  _|___|_____|  25.1.0
 |___|_|             

User:   zoe@Zoes-MacBook-Air.local
Date:   Tue Feb  4 18:57:14 2025
Arch:   arm64
Pid:    81466
CWD:    /Users/zoe/Documents/Python/TIF320_Computitional_molecular_physics
Python: 3.12.2
gpaw:   /opt/anaconda3/envs/tif320env/lib/python3.12/site-packages/gpaw
_gpaw:  /opt/anaconda3/envs/tif320env/lib/python3.12/site-packages/
        _gpaw.cpython-312-darwin.so
ase:    /opt/anaconda3/envs/tif320env/lib/python3.12/site-packages/ase (version 3.24.0)
numpy:  /opt/anaconda3/envs/tif320env/lib/python3.12/site-packages/numpy (version 2.0.1)
scipy:  /opt/anaconda3/envs/tif320env/lib/python3.12/site-packages/scipy (version 1.15.1)
libxc:  7.0.0
units:  Angstrom and eV
cores: 1
OpenMP: False
OMP_NUM_THREADS: 1

Input parameters:
  kpts: [8 8 8]
  mode: {ecut: 400.0,
         name: pw}
  xc: PBE

System changes: positions, numbers, cell, pbc, initial_charges, initial_magmoms 

Initialize ...

species:
  Al:
    name: Aluminium
    id: 0292cae29f5d6237e50f6abdd43a7bdd
    Z: 13.0
    valence: 3
    core: 10
    charge: 0.0
    file: /opt/anaconda3/envs/tif320env/gpaw-setups/gpaw-setups-24.11.0/Al.PBE.gz
    compensation charges: {type: gauss,
                           rc: 0.34,
                           lmax: 2}
    cutoffs: {filter: 1.91,
              core: 2.36}
    projectors:
      #              energy  rcut
      - 3s(2.00)    -7.753   1.085
      - 3p(1.00)    -2.712   1.085
      -  s          19.459   1.085
      -  p          24.499   1.085
      -  d           0.000   1.085
  
    # Using partial waves for Al as LCAO basis

Reference energy: -6603.423265  # eV

Spin-paired calculation

Convergence criteria:
 Maximum [total energy] change in last 3 cyles: 0.0005 eV / valence electron
 Maximum integral of absolute [dens]ity change: 0.0001 electrons / valence electron
 Maximum integral of absolute [eigenst]ate change: 4e-08 eV^2 / valence electron
 Maximum number of scf [iter]ations: 333
 (Square brackets indicate name in SCF output, whereas a 'c' in
 the SCF output indicates the quantity has converged.)

Symmetries present (total): 48

  ( 1  0  0)  ( 1  0  0)  ( 1  0  0)  ( 1  0  0)  ( 1  0 -1)  ( 1  0 -1)
  ( 1  0 -1)  ( 1 -1  0)  ( 0  1  0)  ( 0  0  1)  ( 1  0  0)  ( 1 -1  0)
  ( 1 -1  0)  ( 1  0 -1)  ( 0  0  1)  ( 0  1  0)  ( 1 -1  0)  ( 1  0  0)

  ( 1  0 -1)  ( 1  0 -1)  ( 1 -1  0)  ( 1 -1  0)  ( 1 -1  0)  ( 1 -1  0)
  ( 0  1 -1)  ( 0  0 -1)  ( 1  0  0)  ( 1  0 -1)  ( 0 -1  1)  ( 0 -1  0)
  ( 0  0 -1)  ( 0  1 -1)  ( 1  0 -1)  ( 1  0  0)  ( 0 -1  0)  ( 0 -1  1)

  ( 0  1  0)  ( 0  1  0)  ( 0  1  0)  ( 0  1  0)  ( 0  1 -1)  ( 0  1 -1)
  ( 1  0  0)  ( 0  1 -1)  ( 0  0  1)  (-1  1  0)  ( 1  0 -1)  ( 0  1  0)
  ( 0  0  1)  (-1  1  0)  ( 1  0  0)  ( 0  1 -1)  ( 0  0 -1)  (-1  1  0)

  ( 0  1 -1)  ( 0  1 -1)  ( 0  0  1)  ( 0  0  1)  ( 0  0  1)  ( 0  0  1)
  ( 0  0 -1)  (-1  1  0)  ( 1  0  0)  ( 0  1  0)  ( 0 -1  1)  (-1  0  1)
  ( 1  0 -1)  ( 0  1  0)  ( 0  1  0)  ( 1  0  0)  (-1  0  1)  ( 0 -1  1)

  ( 0  0 -1)  ( 0  0 -1)  ( 0  0 -1)  ( 0  0 -1)  ( 0 -1  1)  ( 0 -1  1)
  ( 1  0 -1)  ( 0  1 -1)  ( 0 -1  0)  (-1  0  0)  ( 1 -1  0)  ( 0  0  1)
  ( 0  1 -1)  ( 1  0 -1)  (-1  0  0)  ( 0 -1  0)  ( 0 -1  0)  (-1  0  1)

  ( 0 -1  1)  ( 0 -1  1)  ( 0 -1  0)  ( 0 -1  0)  ( 0 -1  0)  ( 0 -1  0)
  ( 0 -1  0)  (-1  0  1)  ( 1 -1  0)  ( 0  0 -1)  ( 0 -1  1)  (-1  0  0)
  ( 1 -1  0)  ( 0  0  1)  ( 0 -1  1)  (-1  0  0)  ( 1 -1  0)  ( 0  0 -1)

  (-1  1  0)  (-1  1  0)  (-1  1  0)  (-1  1  0)  (-1  0  1)  (-1  0  1)
  ( 0  1  0)  ( 0  1 -1)  (-1  0  1)  (-1  0  0)  ( 0  0  1)  ( 0 -1  1)
  ( 0  1 -1)  ( 0  1  0)  (-1  0  0)  (-1  0  1)  ( 0 -1  1)  ( 0  0  1)

  (-1  0  1)  (-1  0  1)  (-1  0  0)  (-1  0  0)  (-1  0  0)  (-1  0  0)
  (-1  1  0)  (-1  0  0)  ( 0  0 -1)  ( 0 -1  0)  (-1  1  0)  (-1  0  1)
  (-1  0  0)  (-1  1  0)  ( 0 -1  0)  ( 0  0 -1)  (-1  0  1)  (-1  1  0)
Note: your k-points are not as symmetric as your crystal!

512 k-points: 8 x 8 x 8 Monkhorst-Pack grid
60 k-points in the irreducible part of the Brillouin zone
       k-points in crystal coordinates                weights
   0:     0.06250000    0.06250000   -0.06250000          6/512
   1:     0.06250000    0.06250000    0.06250000          2/512
   2:     0.18750000   -0.06250000   -0.06250000          6/512
   3:     0.18750000    0.06250000   -0.18750000         12/512
   4:     0.18750000    0.06250000   -0.06250000         12/512
   5:     0.18750000    0.06250000    0.06250000          6/512
   6:     0.18750000    0.18750000   -0.18750000          6/512
   7:     0.18750000    0.18750000   -0.06250000          6/512
   8:     0.18750000    0.18750000    0.06250000          6/512
   9:     0.18750000    0.18750000    0.18750000          2/512
          ...
  59:     0.43750000    0.43750000    0.43750000          2/512

Wave functions: Plane wave expansion
  Cutoff energy: 400.000 eV
  Number of coefficients (min, max): 296, 313
  Pulay-stress correction: 0.000000 eV/Ang^3 (de/decut=0.000000)
  Using Numpy's FFT
  ScaLapack parameters: grid=1x1, blocksize=None
  Wavefunction extrapolation:
    Improved wavefunction reuse through dual PAW basis 

Occupation numbers: Fermi-Dirac:
  width: 0.1000  # eV
 

Eigensolver
   Davidson(niter=2) 

Densities:
  Coarse grid: 14*14*14 grid
  Fine grid: 28*28*28 grid
  Total Charge: 0.000000 

Density mixing:
  Method: separate
  Backend: pulay
  Linear mixing parameter: 0.05
  old densities: 5
  Damping of long wavelength oscillations: 50 

Hamiltonian:
  XC and Coulomb potentials evaluated on a 28*28*28 grid
  Using the PBE Exchange-Correlation functional
  External potential:
    NoExternalPotential
 

XC parameters: PBE with 2 nearest neighbor stencil

Memory estimate:
  Process memory now: 236.41 MiB
  Calculator: 5.01 MiB
    Density: 1.07 MiB
      Arrays: 0.54 MiB
      Localized functions: 0.32 MiB
      Mixer: 0.21 MiB
    Hamiltonian: 0.36 MiB
      Arrays: 0.36 MiB
      XC: 0.00 MiB
      Poisson: 0.00 MiB
      vbar: 0.01 MiB
    Wavefunctions: 3.58 MiB
      Arrays psit_nG: 1.15 MiB
      Eigensolver: 0.05 MiB
      Projections: 0.05 MiB
      Projectors: 1.94 MiB
      PW-descriptor: 0.39 MiB

Total number of cores used: 1

Number of atoms: 1
Number of atomic orbitals: 4
Number of bands in calculation: 4
Number of valence electrons: 3
Bands to converge: occupied

... initialized

Initializing position-dependent things.

Density initialized from atomic densities
Creating initial wave functions:
  4 bands from LCAO basis set

                
                
                
       Al       
                
                
                
                

Positions:
   0 Al     0.000000    0.000000    0.000000    ( 0.0000,  0.0000,  0.0000)

Unit cell:
           periodic     x           y           z      points  spacing
  1. axis:    yes    0.000000    2.027778    2.027778    14     0.1672
  2. axis:    yes    2.027778    0.000000    2.027778    14     0.1672
  3. axis:    yes    2.027778    2.027778    0.000000    14     0.1672

  Lengths:   2.867711   2.867711   2.867711
  Angles:   60.000000  60.000000  60.000000

Effective grid spacing dv^(1/3) = 0.1825

     iter     time        total  log10-change:
                         energy   eigst   dens
iter:   1 18:57:15    -3.740277
iter:   2 18:57:15    -3.741480   -2.66  -0.93
iter:   3 18:57:15    -3.742407   -2.63  -0.95
iter:   4 18:57:15    -3.740743   -3.83  -1.23
iter:   5 18:57:16    -3.740741   -5.50  -2.09
iter:   6 18:57:16    -3.740926c  -4.63  -2.16
iter:   7 18:57:16    -3.740917c  -6.79  -2.72
iter:   8 18:57:16    -3.740916c  -8.00c -3.80
iter:   9 18:57:16    -3.740917c  -8.31c -3.67
iter:  10 18:57:17    -3.740917c  -9.61c -4.75c

Converged after 10 iterations.

Dipole moment: (0.000000, -0.000000, 0.000000) |e|*Ang

Energy contributions relative to reference atoms: (reference = -6603.423265)

Kinetic:         +3.269146
Potential:       -1.453365
External:        +0.000000
XC:              -5.544876
Entropy (-ST):   -0.012013
Local:           -0.005815
SIC:             +0.000000
--------------------------
Free energy:     -3.746923
Extrapolated:    -3.740917

Showing only first 2 kpts
 Kpt  Band  Eigenvalues  Occupancy
  0     0     -3.62051    2.00000
  0     1     16.19905    0.00000
  0     2     17.70017    0.00000

  1     0     -3.90142    2.00000
  1     1     17.83312    0.00000
  1     2     19.24281    0.00000


Fermi level: 7.03884

No gap
No difference between direct/indirect transitions
Timing:                              incl.     excl.
-----------------------------------------------------------
Hamiltonian:                         0.011     0.000   0.0% |
 Atomic:                             0.009     0.000   0.0% |
  XC Correction:                     0.008     0.008   0.4% |
 Calculate atomic Hamiltonians:      0.000     0.000   0.0% |
 Communicate:                        0.000     0.000   0.0% |
 Initialize Hamiltonian:             0.000     0.000   0.0% |
 Poisson:                            0.000     0.000   0.0% |
 XC 3D grid:                         0.003     0.003   0.1% |
LCAO initialization:                 0.123     0.003   0.2% |
 LCAO eigensolver:                   0.029     0.000   0.0% |
  Calculate projections:             0.000     0.000   0.0% |
  DenseAtomicCorrection:             0.001     0.001   0.0% |
  Distribute overlap matrix:         0.000     0.000   0.0% |
  Orbital Layouts:                   0.007     0.007   0.3% |
  Potential matrix:                  0.019     0.019   0.9% |
  Sum over cells:                    0.002     0.002   0.1% |
 LCAO to grid:                       0.047     0.047   2.2% ||
 Set positions (LCAO WFS):           0.044     0.006   0.3% |
  Basic WFS set positions:           0.000     0.000   0.0% |
  Basis functions set positions:     0.000     0.000   0.0% |
  P tci:                             0.010     0.010   0.4% |
  ST tci:                            0.025     0.025   1.1% |
  mktci:                             0.003     0.003   0.2% |
PWDescriptor:                        0.002     0.002   0.1% |
SCF-cycle:                           1.987     0.018   0.8% |
 Davidson:                           1.733     0.134   6.2% |-|
  Apply H:                           0.263     0.259  11.9% |----|
   HMM T:                            0.005     0.005   0.2% |
  Subspace diag:                     0.350     0.006   0.3% |
   calc_h_matrix:                    0.289     0.027   1.2% |
    Apply H:                         0.262     0.257  11.8% |----|
     HMM T:                          0.005     0.005   0.2% |
   diagonalize:                      0.047     0.047   2.1% ||
   rotate_psi:                       0.008     0.008   0.4% |
  calc. matrices:                    0.641     0.119   5.5% |-|
   Apply H:                          0.522     0.513  23.6% |--------|
    HMM T:                           0.009     0.009   0.4% |
  diagonalize:                       0.333     0.333  15.3% |-----|
  rotate_psi:                        0.012     0.012   0.6% |
 Density:                            0.129     0.000   0.0% |
  Atomic density matrices:           0.004     0.004   0.2% |
  Mix:                               0.005     0.005   0.2% |
  Multipole moments:                 0.000     0.000   0.0% |
  Pseudo density:                    0.120     0.116   5.3% |-|
   Symmetrize density:               0.004     0.004   0.2% |
 Hamiltonian:                        0.103     0.001   0.0% |
  Atomic:                            0.077     0.001   0.0% |
   XC Correction:                    0.076     0.076   3.5% ||
  Calculate atomic Hamiltonians:     0.001     0.001   0.1% |
  Communicate:                       0.000     0.000   0.0% |
  Poisson:                           0.000     0.000   0.0% |
  XC 3D grid:                        0.023     0.023   1.1% |
 Orthonormalize:                     0.004     0.001   0.0% |
  calc_s_matrix:                     0.001     0.001   0.1% |
  inverse-cholesky:                  0.001     0.001   0.0% |
  projections:                       0.001     0.001   0.1% |
  rotate_psi_s:                      0.000     0.000   0.0% |
Set symmetry:                        0.013     0.013   0.6% |
Other:                               0.037     0.037   1.7% ||
-----------------------------------------------------------
Total:                                         2.174 100.0%

Memory usage: 236.86 MiB
Date: Tue Feb  4 18:57:17 2025
