
  ___ ___ ___ _ _ _  
 |   |   |_  | | | | 
 | | | | | . | | | | 
 |__ |  _|___|_____|  25.1.0
 |___|_|             

User:   zoe@Zoes-MacBook-Air.local
Date:   Tue Feb  4 18:57:19 2025
Arch:   arm64
Pid:    81466
CWD:    /Users/zoe/Documents/Python/TIF320_Computitional_molecular_physics
Python: 3.12.2
gpaw:   /opt/anaconda3/envs/tif320env/lib/python3.12/site-packages/gpaw
_gpaw:  /opt/anaconda3/envs/tif320env/lib/python3.12/site-packages/
        _gpaw.cpython-312-darwin.so
ase:    /opt/anaconda3/envs/tif320env/lib/python3.12/site-packages/ase (version 3.24.0)
numpy:  /opt/anaconda3/envs/tif320env/lib/python3.12/site-packages/numpy (version 2.0.1)
scipy:  /opt/anaconda3/envs/tif320env/lib/python3.12/site-packages/scipy (version 1.15.1)
libxc:  7.0.0
units:  Angstrom and eV
cores: 1
OpenMP: False
OMP_NUM_THREADS: 1

Input parameters:
  kpts: [8 8 8]
  mode: {ecut: 400.0,
         name: pw}
  xc: PBE

System changes: positions, numbers, cell, pbc, initial_charges, initial_magmoms 

Initialize ...

species:
  Al:
    name: Aluminium
    id: 0292cae29f5d6237e50f6abdd43a7bdd
    Z: 13.0
    valence: 3
    core: 10
    charge: 0.0
    file: /opt/anaconda3/envs/tif320env/gpaw-setups/gpaw-setups-24.11.0/Al.PBE.gz
    compensation charges: {type: gauss,
                           rc: 0.34,
                           lmax: 2}
    cutoffs: {filter: 1.91,
              core: 2.36}
    projectors:
      #              energy  rcut
      - 3s(2.00)    -7.753   1.085
      - 3p(1.00)    -2.712   1.085
      -  s          19.459   1.085
      -  p          24.499   1.085
      -  d           0.000   1.085
  
    # Using partial waves for Al as LCAO basis

Reference energy: -6603.423265  # eV

Spin-paired calculation

Convergence criteria:
 Maximum [total energy] change in last 3 cyles: 0.0005 eV / valence electron
 Maximum integral of absolute [dens]ity change: 0.0001 electrons / valence electron
 Maximum integral of absolute [eigenst]ate change: 4e-08 eV^2 / valence electron
 Maximum number of scf [iter]ations: 333
 (Square brackets indicate name in SCF output, whereas a 'c' in
 the SCF output indicates the quantity has converged.)

Symmetries present (total): 48

  ( 1  0  0)  ( 1  0  0)  ( 1  0  0)  ( 1  0  0)  ( 1  0 -1)  ( 1  0 -1)
  ( 1  0 -1)  ( 1 -1  0)  ( 0  1  0)  ( 0  0  1)  ( 1  0  0)  ( 1 -1  0)
  ( 1 -1  0)  ( 1  0 -1)  ( 0  0  1)  ( 0  1  0)  ( 1 -1  0)  ( 1  0  0)

  ( 1  0 -1)  ( 1  0 -1)  ( 1 -1  0)  ( 1 -1  0)  ( 1 -1  0)  ( 1 -1  0)
  ( 0  1 -1)  ( 0  0 -1)  ( 1  0  0)  ( 1  0 -1)  ( 0 -1  1)  ( 0 -1  0)
  ( 0  0 -1)  ( 0  1 -1)  ( 1  0 -1)  ( 1  0  0)  ( 0 -1  0)  ( 0 -1  1)

  ( 0  1  0)  ( 0  1  0)  ( 0  1  0)  ( 0  1  0)  ( 0  1 -1)  ( 0  1 -1)
  ( 1  0  0)  ( 0  1 -1)  ( 0  0  1)  (-1  1  0)  ( 1  0 -1)  ( 0  1  0)
  ( 0  0  1)  (-1  1  0)  ( 1  0  0)  ( 0  1 -1)  ( 0  0 -1)  (-1  1  0)

  ( 0  1 -1)  ( 0  1 -1)  ( 0  0  1)  ( 0  0  1)  ( 0  0  1)  ( 0  0  1)
  ( 0  0 -1)  (-1  1  0)  ( 1  0  0)  ( 0  1  0)  ( 0 -1  1)  (-1  0  1)
  ( 1  0 -1)  ( 0  1  0)  ( 0  1  0)  ( 1  0  0)  (-1  0  1)  ( 0 -1  1)

  ( 0  0 -1)  ( 0  0 -1)  ( 0  0 -1)  ( 0  0 -1)  ( 0 -1  1)  ( 0 -1  1)
  ( 1  0 -1)  ( 0  1 -1)  ( 0 -1  0)  (-1  0  0)  ( 1 -1  0)  ( 0  0  1)
  ( 0  1 -1)  ( 1  0 -1)  (-1  0  0)  ( 0 -1  0)  ( 0 -1  0)  (-1  0  1)

  ( 0 -1  1)  ( 0 -1  1)  ( 0 -1  0)  ( 0 -1  0)  ( 0 -1  0)  ( 0 -1  0)
  ( 0 -1  0)  (-1  0  1)  ( 1 -1  0)  ( 0  0 -1)  ( 0 -1  1)  (-1  0  0)
  ( 1 -1  0)  ( 0  0  1)  ( 0 -1  1)  (-1  0  0)  ( 1 -1  0)  ( 0  0 -1)

  (-1  1  0)  (-1  1  0)  (-1  1  0)  (-1  1  0)  (-1  0  1)  (-1  0  1)
  ( 0  1  0)  ( 0  1 -1)  (-1  0  1)  (-1  0  0)  ( 0  0  1)  ( 0 -1  1)
  ( 0  1 -1)  ( 0  1  0)  (-1  0  0)  (-1  0  1)  ( 0 -1  1)  ( 0  0  1)

  (-1  0  1)  (-1  0  1)  (-1  0  0)  (-1  0  0)  (-1  0  0)  (-1  0  0)
  (-1  1  0)  (-1  0  0)  ( 0  0 -1)  ( 0 -1  0)  (-1  1  0)  (-1  0  1)
  (-1  0  0)  (-1  1  0)  ( 0 -1  0)  ( 0  0 -1)  (-1  0  1)  (-1  1  0)
Note: your k-points are not as symmetric as your crystal!

512 k-points: 8 x 8 x 8 Monkhorst-Pack grid
60 k-points in the irreducible part of the Brillouin zone
       k-points in crystal coordinates                weights
   0:     0.06250000    0.06250000   -0.06250000          6/512
   1:     0.06250000    0.06250000    0.06250000          2/512
   2:     0.18750000   -0.06250000   -0.06250000          6/512
   3:     0.18750000    0.06250000   -0.18750000         12/512
   4:     0.18750000    0.06250000   -0.06250000         12/512
   5:     0.18750000    0.06250000    0.06250000          6/512
   6:     0.18750000    0.18750000   -0.18750000          6/512
   7:     0.18750000    0.18750000   -0.06250000          6/512
   8:     0.18750000    0.18750000    0.06250000          6/512
   9:     0.18750000    0.18750000    0.18750000          2/512
          ...
  59:     0.43750000    0.43750000    0.43750000          2/512

Wave functions: Plane wave expansion
  Cutoff energy: 400.000 eV
  Number of coefficients (min, max): 306, 322
  Pulay-stress correction: 0.000000 eV/Ang^3 (de/decut=0.000000)
  Using Numpy's FFT
  ScaLapack parameters: grid=1x1, blocksize=None
  Wavefunction extrapolation:
    Improved wavefunction reuse through dual PAW basis 

Occupation numbers: Fermi-Dirac:
  width: 0.1000  # eV
 

Eigensolver
   Davidson(niter=2) 

Densities:
  Coarse grid: 14*14*14 grid
  Fine grid: 28*28*28 grid
  Total Charge: 0.000000 

Density mixing:
  Method: separate
  Backend: pulay
  Linear mixing parameter: 0.05
  old densities: 5
  Damping of long wavelength oscillations: 50 

Hamiltonian:
  XC and Coulomb potentials evaluated on a 28*28*28 grid
  Using the PBE Exchange-Correlation functional
  External potential:
    NoExternalPotential
 

XC parameters: PBE with 2 nearest neighbor stencil

Memory estimate:
  Process memory now: 236.86 MiB
  Calculator: 5.13 MiB
    Density: 1.09 MiB
      Arrays: 0.54 MiB
      Localized functions: 0.33 MiB
      Mixer: 0.21 MiB
    Hamiltonian: 0.36 MiB
      Arrays: 0.36 MiB
      XC: 0.00 MiB
      Poisson: 0.00 MiB
      vbar: 0.01 MiB
    Wavefunctions: 3.68 MiB
      Arrays psit_nG: 1.18 MiB
      Eigensolver: 0.05 MiB
      Projections: 0.05 MiB
      Projectors: 2.01 MiB
      PW-descriptor: 0.40 MiB

Total number of cores used: 1

Number of atoms: 1
Number of atomic orbitals: 4
Number of bands in calculation: 4
Number of valence electrons: 3
Bands to converge: occupied

... initialized

Initializing position-dependent things.

Density initialized from atomic densities
Creating initial wave functions:
  4 bands from LCAO basis set

                
                
                
       Al       
                
                
                
                

Positions:
   0 Al     0.000000    0.000000    0.000000    ( 0.0000,  0.0000,  0.0000)

Unit cell:
           periodic     x           y           z      points  spacing
  1. axis:    yes    0.000000    2.050000    2.050000    14     0.1691
  2. axis:    yes    2.050000    0.000000    2.050000    14     0.1691
  3. axis:    yes    2.050000    2.050000    0.000000    14     0.1691

  Lengths:   2.899138   2.899138   2.899138
  Angles:   60.000000  60.000000  60.000000

Effective grid spacing dv^(1/3) = 0.1845

     iter     time        total  log10-change:
                         energy   eigst   dens
iter:   1 18:57:19    -3.735232
iter:   2 18:57:19    -3.736261   -2.67  -0.93
iter:   3 18:57:20    -3.735584c  -2.70  -0.95
iter:   4 18:57:20    -3.733481   -3.89  -1.24
iter:   5 18:57:20    -3.733489   -5.58  -2.09
iter:   6 18:57:20    -3.733632c  -5.00  -2.07
iter:   7 18:57:20    -3.733626c  -5.47  -2.59
iter:   8 18:57:21    -3.733626c  -7.48c -3.70
iter:   9 18:57:21    -3.733626c  -7.16  -3.56
iter:  10 18:57:21    -3.733626c  -7.87c -3.55
iter:  11 18:57:21    -3.733626c  -7.76c -3.46
iter:  12 18:57:21    -3.733626c  -8.98c -4.55c

Converged after 12 iterations.

Dipole moment: (-0.000000, -0.000000, -0.000000) |e|*Ang

Energy contributions relative to reference atoms: (reference = -6603.423265)

Kinetic:         +2.260011
Potential:       -0.710243
External:        +0.000000
XC:              -5.271949
Entropy (-ST):   -0.012689
Local:           -0.005101
SIC:             +0.000000
--------------------------
Free energy:     -3.739971
Extrapolated:    -3.733626

Showing only first 2 kpts
 Kpt  Band  Eigenvalues  Occupancy
  0     0     -3.71322    2.00000
  0     1     15.72161    0.00000
  0     2     17.16867    0.00000

  1     0     -3.98811    2.00000
  1     1     17.32655    0.00000
  1     2     18.71340    0.00000


Fermi level: 6.73258

No gap
No difference between direct/indirect transitions
Timing:                              incl.     excl.
-----------------------------------------------------------
Hamiltonian:                         0.012     0.000   0.0% |
 Atomic:                             0.009     0.000   0.0% |
  XC Correction:                     0.009     0.009   0.3% |
 Calculate atomic Hamiltonians:      0.000     0.000   0.0% |
 Communicate:                        0.000     0.000   0.0% |
 Initialize Hamiltonian:             0.000     0.000   0.0% |
 Poisson:                            0.000     0.000   0.0% |
 XC 3D grid:                         0.003     0.003   0.1% |
LCAO initialization:                 0.125     0.004   0.1% |
 LCAO eigensolver:                   0.029     0.000   0.0% |
  Calculate projections:             0.000     0.000   0.0% |
  DenseAtomicCorrection:             0.001     0.001   0.0% |
  Distribute overlap matrix:         0.000     0.000   0.0% |
  Orbital Layouts:                   0.008     0.008   0.3% |
  Potential matrix:                  0.018     0.018   0.7% |
  Sum over cells:                    0.002     0.002   0.1% |
 LCAO to grid:                       0.047     0.047   1.8% ||
 Set positions (LCAO WFS):           0.046     0.006   0.2% |
  Basic WFS set positions:           0.000     0.000   0.0% |
  Basis functions set positions:     0.000     0.000   0.0% |
  P tci:                             0.010     0.010   0.4% |
  ST tci:                            0.026     0.026   1.0% |
  mktci:                             0.004     0.004   0.1% |
PWDescriptor:                        0.002     0.002   0.1% |
SCF-cycle:                           2.372     0.021   0.8% |
 Davidson:                           2.063     0.166   6.5% |--|
  Apply H:                           0.302     0.296  11.6% |----|
   HMM T:                            0.006     0.006   0.2% |
  Subspace diag:                     0.416     0.008   0.3% |
   calc_h_matrix:                    0.336     0.034   1.3% ||
    Apply H:                         0.303     0.297  11.6% |----|
     HMM T:                          0.006     0.006   0.2% |
   diagonalize:                      0.061     0.061   2.4% ||
   rotate_psi:                       0.010     0.010   0.4% |
  calc. matrices:                    0.749     0.150   5.8% |-|
   Apply H:                          0.600     0.589  23.0% |--------|
    HMM T:                           0.011     0.011   0.4% |
  diagonalize:                       0.416     0.416  16.2% |-----|
  rotate_psi:                        0.015     0.015   0.6% |
 Density:                            0.157     0.000   0.0% |
  Atomic density matrices:           0.005     0.005   0.2% |
  Mix:                               0.006     0.006   0.2% |
  Multipole moments:                 0.000     0.000   0.0% |
  Pseudo density:                    0.146     0.141   5.5% |-|
   Symmetrize density:               0.006     0.006   0.2% |
 Hamiltonian:                        0.126     0.001   0.0% |
  Atomic:                            0.094     0.001   0.0% |
   XC Correction:                    0.093     0.093   3.6% ||
  Calculate atomic Hamiltonians:     0.002     0.002   0.1% |
  Communicate:                       0.000     0.000   0.0% |
  Poisson:                           0.001     0.001   0.0% |
  XC 3D grid:                        0.029     0.029   1.1% |
 Orthonormalize:                     0.005     0.001   0.0% |
  calc_s_matrix:                     0.001     0.001   0.0% |
  inverse-cholesky:                  0.001     0.001   0.0% |
  projections:                       0.002     0.002   0.1% |
  rotate_psi_s:                      0.000     0.000   0.0% |
Set symmetry:                        0.013     0.013   0.5% |
Other:                               0.038     0.038   1.5% ||
-----------------------------------------------------------
Total:                                         2.563 100.0%

Memory usage: 236.86 MiB
Date: Tue Feb  4 18:57:21 2025
