
  ___ ___ ___ _ _ _  
 |   |   |_  | | | | 
 | | | | | . | | | | 
 |__ |  _|___|_____|  25.1.0
 |___|_|             

User:   zoe@Zoes-MacBook-Air.local
Date:   Tue Feb  4 18:56:30 2025
Arch:   arm64
Pid:    81466
CWD:    /Users/zoe/Documents/Python/TIF320_Computitional_molecular_physics
Python: 3.12.2
gpaw:   /opt/anaconda3/envs/tif320env/lib/python3.12/site-packages/gpaw
_gpaw:  /opt/anaconda3/envs/tif320env/lib/python3.12/site-packages/
        _gpaw.cpython-312-darwin.so
ase:    /opt/anaconda3/envs/tif320env/lib/python3.12/site-packages/ase (version 3.24.0)
numpy:  /opt/anaconda3/envs/tif320env/lib/python3.12/site-packages/numpy (version 2.0.1)
scipy:  /opt/anaconda3/envs/tif320env/lib/python3.12/site-packages/scipy (version 1.15.1)
libxc:  7.0.0
units:  Angstrom and eV
cores: 1
OpenMP: False
OMP_NUM_THREADS: 1

Input parameters:
  kpts: [8 8 8]
  mode: {ecut: 250.0,
         name: pw}

System changes: positions, numbers, cell, pbc, initial_charges, initial_magmoms 

Initialize ...

species:
  Al:
    name: Aluminium
    id: 2e6447feaea722efcff26bf034b25f30
    Z: 13.0
    valence: 3
    core: 10
    charge: 0.0
    file: /opt/anaconda3/envs/tif320env/gpaw-setups/gpaw-setups-24.11.0/Al.LDA.gz
    compensation charges: {type: gauss,
                           rc: 0.34,
                           lmax: 2}
    cutoffs: {filter: 1.91,
              core: 2.36}
    projectors:
      #              energy  rcut
      - 3s(2.00)    -7.830   1.085
      - 3p(1.00)    -2.783   1.085
      -  s          19.382   1.085
      -  p          24.428   1.085
      -  d           0.000   1.085
  
    # Using partial waves for Al as LCAO basis

Reference energy: -6578.421307  # eV

Spin-paired calculation

Convergence criteria:
 Maximum [total energy] change in last 3 cyles: 0.0005 eV / valence electron
 Maximum integral of absolute [dens]ity change: 0.0001 electrons / valence electron
 Maximum integral of absolute [eigenst]ate change: 4e-08 eV^2 / valence electron
 Maximum number of scf [iter]ations: 333
 (Square brackets indicate name in SCF output, whereas a 'c' in
 the SCF output indicates the quantity has converged.)

Symmetries present (total): 48

  ( 1  0  0)  ( 1  0  0)  ( 1  0  0)  ( 1  0  0)  ( 1  0 -1)  ( 1  0 -1)
  ( 1  0 -1)  ( 1 -1  0)  ( 0  1  0)  ( 0  0  1)  ( 1  0  0)  ( 1 -1  0)
  ( 1 -1  0)  ( 1  0 -1)  ( 0  0  1)  ( 0  1  0)  ( 1 -1  0)  ( 1  0  0)

  ( 1  0 -1)  ( 1  0 -1)  ( 1 -1  0)  ( 1 -1  0)  ( 1 -1  0)  ( 1 -1  0)
  ( 0  1 -1)  ( 0  0 -1)  ( 1  0  0)  ( 1  0 -1)  ( 0 -1  1)  ( 0 -1  0)
  ( 0  0 -1)  ( 0  1 -1)  ( 1  0 -1)  ( 1  0  0)  ( 0 -1  0)  ( 0 -1  1)

  ( 0  1  0)  ( 0  1  0)  ( 0  1  0)  ( 0  1  0)  ( 0  1 -1)  ( 0  1 -1)
  ( 1  0  0)  ( 0  1 -1)  ( 0  0  1)  (-1  1  0)  ( 1  0 -1)  ( 0  1  0)
  ( 0  0  1)  (-1  1  0)  ( 1  0  0)  ( 0  1 -1)  ( 0  0 -1)  (-1  1  0)

  ( 0  1 -1)  ( 0  1 -1)  ( 0  0  1)  ( 0  0  1)  ( 0  0  1)  ( 0  0  1)
  ( 0  0 -1)  (-1  1  0)  ( 1  0  0)  ( 0  1  0)  ( 0 -1  1)  (-1  0  1)
  ( 1  0 -1)  ( 0  1  0)  ( 0  1  0)  ( 1  0  0)  (-1  0  1)  ( 0 -1  1)

  ( 0  0 -1)  ( 0  0 -1)  ( 0  0 -1)  ( 0  0 -1)  ( 0 -1  1)  ( 0 -1  1)
  ( 1  0 -1)  ( 0  1 -1)  ( 0 -1  0)  (-1  0  0)  ( 1 -1  0)  ( 0  0  1)
  ( 0  1 -1)  ( 1  0 -1)  (-1  0  0)  ( 0 -1  0)  ( 0 -1  0)  (-1  0  1)

  ( 0 -1  1)  ( 0 -1  1)  ( 0 -1  0)  ( 0 -1  0)  ( 0 -1  0)  ( 0 -1  0)
  ( 0 -1  0)  (-1  0  1)  ( 1 -1  0)  ( 0  0 -1)  ( 0 -1  1)  (-1  0  0)
  ( 1 -1  0)  ( 0  0  1)  ( 0 -1  1)  (-1  0  0)  ( 1 -1  0)  ( 0  0 -1)

  (-1  1  0)  (-1  1  0)  (-1  1  0)  (-1  1  0)  (-1  0  1)  (-1  0  1)
  ( 0  1  0)  ( 0  1 -1)  (-1  0  1)  (-1  0  0)  ( 0  0  1)  ( 0 -1  1)
  ( 0  1 -1)  ( 0  1  0)  (-1  0  0)  (-1  0  1)  ( 0 -1  1)  ( 0  0  1)

  (-1  0  1)  (-1  0  1)  (-1  0  0)  (-1  0  0)  (-1  0  0)  (-1  0  0)
  (-1  1  0)  (-1  0  0)  ( 0  0 -1)  ( 0 -1  0)  (-1  1  0)  (-1  0  1)
  (-1  0  0)  (-1  1  0)  ( 0 -1  0)  ( 0  0 -1)  (-1  0  1)  (-1  1  0)
Note: your k-points are not as symmetric as your crystal!

512 k-points: 8 x 8 x 8 Monkhorst-Pack grid
60 k-points in the irreducible part of the Brillouin zone
       k-points in crystal coordinates                weights
   0:     0.06250000    0.06250000   -0.06250000          6/512
   1:     0.06250000    0.06250000    0.06250000          2/512
   2:     0.18750000   -0.06250000   -0.06250000          6/512
   3:     0.18750000    0.06250000   -0.18750000         12/512
   4:     0.18750000    0.06250000   -0.06250000         12/512
   5:     0.18750000    0.06250000    0.06250000          6/512
   6:     0.18750000    0.18750000   -0.18750000          6/512
   7:     0.18750000    0.18750000   -0.06250000          6/512
   8:     0.18750000    0.18750000    0.06250000          6/512
   9:     0.18750000    0.18750000    0.18750000          2/512
          ...
  59:     0.43750000    0.43750000    0.43750000          2/512

Wave functions: Plane wave expansion
  Cutoff energy: 250.000 eV
  Number of coefficients (min, max): 144, 157
  Pulay-stress correction: 0.000000 eV/Ang^3 (de/decut=0.000000)
  Using Numpy's FFT
  ScaLapack parameters: grid=1x1, blocksize=None
  Wavefunction extrapolation:
    Improved wavefunction reuse through dual PAW basis 

Occupation numbers: Fermi-Dirac:
  width: 0.1000  # eV
 

Eigensolver
   Davidson(niter=2) 

Densities:
  Coarse grid: 12*12*12 grid
  Fine grid: 24*24*24 grid
  Total Charge: 0.000000 

Density mixing:
  Method: separate
  Backend: pulay
  Linear mixing parameter: 0.05
  old densities: 5
  Damping of long wavelength oscillations: 50 

Hamiltonian:
  XC and Coulomb potentials evaluated on a 24*24*24 grid
  Using the LDA Exchange-Correlation functional
  External potential:
    NoExternalPotential
 

Memory estimate:
  Process memory now: 199.64 MiB
  Calculator: 2.67 MiB
    Density: 0.63 MiB
      Arrays: 0.34 MiB
      Localized functions: 0.16 MiB
      Mixer: 0.13 MiB
    Hamiltonian: 0.23 MiB
      Arrays: 0.22 MiB
      XC: 0.00 MiB
      Poisson: 0.00 MiB
      vbar: 0.00 MiB
    Wavefunctions: 1.81 MiB
      Arrays psit_nG: 0.57 MiB
      Eigensolver: 0.02 MiB
      Projections: 0.05 MiB
      Projectors: 0.96 MiB
      PW-descriptor: 0.21 MiB

Total number of cores used: 1

Number of atoms: 1
Number of atomic orbitals: 4
Number of bands in calculation: 4
Number of valence electrons: 3
Bands to converge: occupied

... initialized

Initializing position-dependent things.

Density initialized from atomic densities
Creating initial wave functions:
  4 bands from LCAO basis set

                
                
                
       Al       
                
                
                
                

Positions:
   0 Al     0.000000    0.000000    0.000000    ( 0.0000,  0.0000,  0.0000)

Unit cell:
           periodic     x           y           z      points  spacing
  1. axis:    yes    0.000000    2.025000    2.025000    12     0.1949
  2. axis:    yes    2.025000    0.000000    2.025000    12     0.1949
  3. axis:    yes    2.025000    2.025000    0.000000    12     0.1949

  Lengths:   2.863782   2.863782   2.863782
  Angles:   60.000000  60.000000  60.000000

Effective grid spacing dv^(1/3) = 0.2126

     iter     time        total  log10-change:
                         energy   eigst   dens
iter:   1 18:56:31    -4.176067
iter:   2 18:56:31    -4.176860   -2.65  -0.94
iter:   3 18:56:31    -4.173534   -2.75  -0.96
iter:   4 18:56:31    -4.171545   -4.00  -1.22
iter:   5 18:56:31    -4.171852   -5.33  -2.16
iter:   6 18:56:31    -4.171616c  -4.97  -2.00
iter:   7 18:56:32    -4.171613c  -6.54  -2.71
iter:   8 18:56:32    -4.171612c  -8.39c -3.73
iter:   9 18:56:32    -4.171612c  -9.91c -4.18c

Converged after 9 iterations.

Dipole moment: (0.000000, 0.000000, 0.000000) |e|*Ang

Energy contributions relative to reference atoms: (reference = -6578.421307)

Kinetic:         +3.818705
Potential:       -1.951321
External:        +0.000000
XC:              -6.023512
Entropy (-ST):   -0.012289
Local:           -0.009339
SIC:             +0.000000
--------------------------
Free energy:     -4.177757
Extrapolated:    -4.171612

Showing only first 2 kpts
 Kpt  Band  Eigenvalues  Occupancy
  0     0     -3.77899    2.00000
  0     1     16.01983    0.00000
  0     2     17.48584    0.00000

  1     0     -4.05997    2.00000
  1     1     17.64519    0.00000
  1     2     19.04913    0.00000


Fermi level: 6.87814

No gap
No difference between direct/indirect transitions
Timing:                              incl.     excl.
-----------------------------------------------------------
Hamiltonian:                         0.004     0.000   0.0% |
 Atomic:                             0.003     0.000   0.0% |
  XC Correction:                     0.003     0.003   0.2% |
 Calculate atomic Hamiltonians:      0.000     0.000   0.0% |
 Communicate:                        0.000     0.000   0.0% |
 Initialize Hamiltonian:             0.000     0.000   0.0% |
 Poisson:                            0.000     0.000   0.0% |
 XC 3D grid:                         0.001     0.001   0.0% |
LCAO initialization:                 0.104     0.003   0.2% |
 LCAO eigensolver:                   0.024     0.000   0.0% |
  Calculate projections:             0.000     0.000   0.0% |
  DenseAtomicCorrection:             0.001     0.001   0.0% |
  Distribute overlap matrix:         0.000     0.000   0.0% |
  Orbital Layouts:                   0.009     0.009   0.6% |
  Potential matrix:                  0.012     0.012   0.7% |
  Sum over cells:                    0.002     0.002   0.1% |
 LCAO to grid:                       0.032     0.032   1.9% ||
 Set positions (LCAO WFS):           0.044     0.006   0.4% |
  Basic WFS set positions:           0.000     0.000   0.0% |
  Basis functions set positions:     0.000     0.000   0.0% |
  P tci:                             0.010     0.010   0.6% |
  ST tci:                            0.025     0.025   1.5% ||
  mktci:                             0.003     0.003   0.2% |
PWDescriptor:                        0.001     0.001   0.1% |
SCF-cycle:                           1.474     0.016   1.0% |
 Davidson:                           1.334     0.108   6.6% |--|
  Apply H:                           0.191     0.187  11.5% |----|
   HMM T:                            0.004     0.004   0.2% |
  Subspace diag:                     0.259     0.006   0.4% |
   calc_h_matrix:                    0.205     0.013   0.8% |
    Apply H:                         0.191     0.187  11.5% |----|
     HMM T:                          0.004     0.004   0.2% |
   diagonalize:                      0.042     0.042   2.6% ||
   rotate_psi:                       0.006     0.006   0.4% |
  calc. matrices:                    0.459     0.080   4.9% |-|
   Apply H:                          0.379     0.371  22.7% |--------|
    HMM T:                           0.008     0.008   0.5% |
  diagonalize:                       0.308     0.308  18.9% |-------|
  rotate_psi:                        0.009     0.009   0.5% |
 Density:                            0.093     0.000   0.0% |
  Atomic density matrices:           0.003     0.003   0.2% |
  Mix:                               0.003     0.003   0.2% |
  Multipole moments:                 0.000     0.000   0.0% |
  Pseudo density:                    0.086     0.084   5.1% |-|
   Symmetrize density:               0.003     0.003   0.2% |
 Hamiltonian:                        0.028     0.001   0.0% |
  Atomic:                            0.022     0.001   0.0% |
   XC Correction:                    0.021     0.021   1.3% ||
  Calculate atomic Hamiltonians:     0.001     0.001   0.0% |
  Communicate:                       0.000     0.000   0.0% |
  Poisson:                           0.000     0.000   0.0% |
  XC 3D grid:                        0.004     0.004   0.3% |
 Orthonormalize:                     0.004     0.001   0.0% |
  calc_s_matrix:                     0.001     0.001   0.1% |
  inverse-cholesky:                  0.001     0.001   0.0% |
  projections:                       0.001     0.001   0.1% |
  rotate_psi_s:                      0.000     0.000   0.0% |
Set symmetry:                        0.013     0.013   0.8% |
Other:                               0.035     0.035   2.1% ||
-----------------------------------------------------------
Total:                                         1.631 100.0%

Memory usage: 199.72 MiB
Date: Tue Feb  4 18:56:32 2025
