
  ___ ___ ___ _ _ _  
 |   |   |_  | | | | 
 | | | | | . | | | | 
 |__ |  _|___|_____|  25.1.0
 |___|_|             

User:   zoe@Zoes-MacBook-Air.local
Date:   Tue Feb  4 18:55:48 2025
Arch:   arm64
Pid:    81466
CWD:    /Users/zoe/Documents/Python/TIF320_Computitional_molecular_physics
Python: 3.12.2
gpaw:   /opt/anaconda3/envs/tif320env/lib/python3.12/site-packages/gpaw
_gpaw:  /opt/anaconda3/envs/tif320env/lib/python3.12/site-packages/
        _gpaw.cpython-312-darwin.so
ase:    /opt/anaconda3/envs/tif320env/lib/python3.12/site-packages/ase (version 3.24.0)
numpy:  /opt/anaconda3/envs/tif320env/lib/python3.12/site-packages/numpy (version 2.0.1)
scipy:  /opt/anaconda3/envs/tif320env/lib/python3.12/site-packages/scipy (version 1.15.1)
libxc:  7.0.0
units:  Angstrom and eV
cores: 1
OpenMP: False
OMP_NUM_THREADS: 1

Input parameters:
  kpts: [4 4 4]
  mode: {ecut: 350.0,
         name: pw}

System changes: positions, numbers, cell, pbc, initial_charges, initial_magmoms 

Initialize ...

species:
  Al:
    name: Aluminium
    id: 2e6447feaea722efcff26bf034b25f30
    Z: 13.0
    valence: 3
    core: 10
    charge: 0.0
    file: /opt/anaconda3/envs/tif320env/gpaw-setups/gpaw-setups-24.11.0/Al.LDA.gz
    compensation charges: {type: gauss,
                           rc: 0.34,
                           lmax: 2}
    cutoffs: {filter: 1.91,
              core: 2.36}
    projectors:
      #              energy  rcut
      - 3s(2.00)    -7.830   1.085
      - 3p(1.00)    -2.783   1.085
      -  s          19.382   1.085
      -  p          24.428   1.085
      -  d           0.000   1.085
  
    # Using partial waves for Al as LCAO basis

Reference energy: -6578.421307  # eV

Spin-paired calculation

Convergence criteria:
 Maximum [total energy] change in last 3 cyles: 0.0005 eV / valence electron
 Maximum integral of absolute [dens]ity change: 0.0001 electrons / valence electron
 Maximum integral of absolute [eigenst]ate change: 4e-08 eV^2 / valence electron
 Maximum number of scf [iter]ations: 333
 (Square brackets indicate name in SCF output, whereas a 'c' in
 the SCF output indicates the quantity has converged.)

Symmetries present (total): 48

  ( 1  0  0)  ( 1  0  0)  ( 1  0  0)  ( 1  0  0)  ( 1  0 -1)  ( 1  0 -1)
  ( 1  0 -1)  ( 1 -1  0)  ( 0  1  0)  ( 0  0  1)  ( 1  0  0)  ( 1 -1  0)
  ( 1 -1  0)  ( 1  0 -1)  ( 0  0  1)  ( 0  1  0)  ( 1 -1  0)  ( 1  0  0)

  ( 1  0 -1)  ( 1  0 -1)  ( 1 -1  0)  ( 1 -1  0)  ( 1 -1  0)  ( 1 -1  0)
  ( 0  1 -1)  ( 0  0 -1)  ( 1  0  0)  ( 1  0 -1)  ( 0 -1  1)  ( 0 -1  0)
  ( 0  0 -1)  ( 0  1 -1)  ( 1  0 -1)  ( 1  0  0)  ( 0 -1  0)  ( 0 -1  1)

  ( 0  1  0)  ( 0  1  0)  ( 0  1  0)  ( 0  1  0)  ( 0  1 -1)  ( 0  1 -1)
  ( 1  0  0)  ( 0  1 -1)  ( 0  0  1)  (-1  1  0)  ( 1  0 -1)  ( 0  1  0)
  ( 0  0  1)  (-1  1  0)  ( 1  0  0)  ( 0  1 -1)  ( 0  0 -1)  (-1  1  0)

  ( 0  1 -1)  ( 0  1 -1)  ( 0  0  1)  ( 0  0  1)  ( 0  0  1)  ( 0  0  1)
  ( 0  0 -1)  (-1  1  0)  ( 1  0  0)  ( 0  1  0)  ( 0 -1  1)  (-1  0  1)
  ( 1  0 -1)  ( 0  1  0)  ( 0  1  0)  ( 1  0  0)  (-1  0  1)  ( 0 -1  1)

  ( 0  0 -1)  ( 0  0 -1)  ( 0  0 -1)  ( 0  0 -1)  ( 0 -1  1)  ( 0 -1  1)
  ( 1  0 -1)  ( 0  1 -1)  ( 0 -1  0)  (-1  0  0)  ( 1 -1  0)  ( 0  0  1)
  ( 0  1 -1)  ( 1  0 -1)  (-1  0  0)  ( 0 -1  0)  ( 0 -1  0)  (-1  0  1)

  ( 0 -1  1)  ( 0 -1  1)  ( 0 -1  0)  ( 0 -1  0)  ( 0 -1  0)  ( 0 -1  0)
  ( 0 -1  0)  (-1  0  1)  ( 1 -1  0)  ( 0  0 -1)  ( 0 -1  1)  (-1  0  0)
  ( 1 -1  0)  ( 0  0  1)  ( 0 -1  1)  (-1  0  0)  ( 1 -1  0)  ( 0  0 -1)

  (-1  1  0)  (-1  1  0)  (-1  1  0)  (-1  1  0)  (-1  0  1)  (-1  0  1)
  ( 0  1  0)  ( 0  1 -1)  (-1  0  1)  (-1  0  0)  ( 0  0  1)  ( 0 -1  1)
  ( 0  1 -1)  ( 0  1  0)  (-1  0  0)  (-1  0  1)  ( 0 -1  1)  ( 0  0  1)

  (-1  0  1)  (-1  0  1)  (-1  0  0)  (-1  0  0)  (-1  0  0)  (-1  0  0)
  (-1  1  0)  (-1  0  0)  ( 0  0 -1)  ( 0 -1  0)  (-1  1  0)  (-1  0  1)
  (-1  0  0)  (-1  1  0)  ( 0 -1  0)  ( 0  0 -1)  (-1  0  1)  (-1  1  0)
Note: your k-points are not as symmetric as your crystal!

64 k-points: 4 x 4 x 4 Monkhorst-Pack grid
10 k-points in the irreducible part of the Brillouin zone
       k-points in crystal coordinates                weights
   0:     0.12500000    0.12500000   -0.12500000          6/64
   1:     0.12500000    0.12500000    0.12500000          2/64
   2:     0.37500000   -0.12500000   -0.12500000          6/64
   3:     0.37500000    0.12500000   -0.37500000         12/64
   4:     0.37500000    0.12500000   -0.12500000         12/64
   5:     0.37500000    0.12500000    0.12500000          6/64
   6:     0.37500000    0.37500000   -0.37500000          6/64
   7:     0.37500000    0.37500000   -0.12500000          6/64
   8:     0.37500000    0.37500000    0.12500000          6/64
   9:     0.37500000    0.37500000    0.37500000          2/64

Wave functions: Plane wave expansion
  Cutoff energy: 350.000 eV
  Number of coefficients (min, max): 240, 262
  Pulay-stress correction: 0.000000 eV/Ang^3 (de/decut=0.000000)
  Using Numpy's FFT
  ScaLapack parameters: grid=1x1, blocksize=None
  Wavefunction extrapolation:
    Improved wavefunction reuse through dual PAW basis 

Occupation numbers: Fermi-Dirac:
  width: 0.1000  # eV
 

Eigensolver
   Davidson(niter=2) 

Densities:
  Coarse grid: 14*14*14 grid
  Fine grid: 28*28*28 grid
  Total Charge: 0.000000 

Density mixing:
  Method: separate
  Backend: pulay
  Linear mixing parameter: 0.05
  old densities: 5
  Damping of long wavelength oscillations: 50 

Hamiltonian:
  XC and Coulomb potentials evaluated on a 28*28*28 grid
  Using the LDA Exchange-Correlation functional
  External potential:
    NoExternalPotential
 

Memory estimate:
  Process memory now: 125.41 MiB
  Calculator: 1.99 MiB
    Density: 1.02 MiB
      Arrays: 0.54 MiB
      Localized functions: 0.26 MiB
      Mixer: 0.21 MiB
    Hamiltonian: 0.36 MiB
      Arrays: 0.36 MiB
      XC: 0.00 MiB
      Poisson: 0.00 MiB
      vbar: 0.01 MiB
    Wavefunctions: 0.62 MiB
      Arrays psit_nG: 0.16 MiB
      Eigensolver: 0.04 MiB
      Projections: 0.01 MiB
      Projectors: 0.27 MiB
      PW-descriptor: 0.14 MiB

Total number of cores used: 1

Number of atoms: 1
Number of atomic orbitals: 4
Number of bands in calculation: 4
Number of valence electrons: 3
Bands to converge: occupied

... initialized

Initializing position-dependent things.

Density initialized from atomic densities
Creating initial wave functions:
  4 bands from LCAO basis set

                
                
                
       Al       
                
                
                
                

Positions:
   0 Al     0.000000    0.000000    0.000000    ( 0.0000,  0.0000,  0.0000)

Unit cell:
           periodic     x           y           z      points  spacing
  1. axis:    yes    0.000000    2.025000    2.025000    14     0.1670
  2. axis:    yes    2.025000    0.000000    2.025000    14     0.1670
  3. axis:    yes    2.025000    2.025000    0.000000    14     0.1670

  Lengths:   2.863782   2.863782   2.863782
  Angles:   60.000000  60.000000  60.000000

Effective grid spacing dv^(1/3) = 0.1822

     iter     time        total  log10-change:
                         energy   eigst   dens
iter:   1 18:55:48    -4.126141
iter:   2 18:55:48    -4.127008   -2.66  -0.95
iter:   3 18:55:48    -4.124465   -2.75  -0.96
iter:   4 18:55:48    -4.122564   -4.00  -1.20
iter:   5 18:55:48    -4.122910   -5.39  -2.19
iter:   6 18:55:48    -4.122624c  -5.07  -1.96
iter:   7 18:55:48    -4.122622c  -7.07  -2.95
iter:   8 18:55:48    -4.122622c  -8.74c -3.83
iter:   9 18:55:48    -4.122622c  -9.16c -4.17c

Converged after 9 iterations.

Dipole moment: (-0.000000, -0.000000, -0.000000) |e|*Ang

Energy contributions relative to reference atoms: (reference = -6578.421307)

Kinetic:         +3.888692
Potential:       -1.959128
External:        +0.000000
XC:              -6.032258
Entropy (-ST):   -0.031111
Local:           -0.004373
SIC:             +0.000000
--------------------------
Free energy:     -4.138178
Extrapolated:    -4.122622

Showing only first 2 kpts
 Kpt  Band  Eigenvalues  Occupancy
  0     0     -2.62452    2.00000
  0     1     12.16417    0.00000
  0     2     15.63502    0.00000

  1     0     -3.74281    2.00000
  1     1     15.15116    0.00000
  1     2     18.45027    0.00000


Fermi level: 7.01873

No gap
No difference between direct/indirect transitions
Timing:                              incl.     excl.
-----------------------------------------------------------
Hamiltonian:                         0.004     0.000   0.0% |
 Atomic:                             0.003     0.000   0.0% |
  XC Correction:                     0.003     0.003   0.6% |
 Calculate atomic Hamiltonians:      0.000     0.000   0.0% |
 Communicate:                        0.000     0.000   0.0% |
 Initialize Hamiltonian:             0.000     0.000   0.0% |
 Poisson:                            0.000     0.000   0.0% |
 XC 3D grid:                         0.001     0.001   0.2% |
LCAO initialization:                 0.050     0.003   0.7% |
 LCAO eigensolver:                   0.023     0.000   0.0% |
  Calculate projections:             0.000     0.000   0.0% |
  DenseAtomicCorrection:             0.000     0.000   0.0% |
  Distribute overlap matrix:         0.000     0.000   0.0% |
  Orbital Layouts:                   0.004     0.004   0.9% |
  Potential matrix:                  0.018     0.018   4.0% |-|
  Sum over cells:                    0.001     0.001   0.1% |
 LCAO to grid:                       0.008     0.008   1.7% ||
 Set positions (LCAO WFS):           0.016     0.003   0.6% |
  Basic WFS set positions:           0.000     0.000   0.1% |
  Basis functions set positions:     0.000     0.000   0.0% |
  P tci:                             0.003     0.003   0.7% |
  ST tci:                            0.006     0.006   1.4% ||
  mktci:                             0.004     0.004   0.9% |
PWDescriptor:                        0.000     0.000   0.1% |
SCF-cycle:                           0.323     0.004   0.9% |
 Davidson:                           0.259     0.020   4.5% |-|
  Apply H:                           0.038     0.037   8.3% |--|
   HMM T:                            0.001     0.001   0.2% |
  Subspace diag:                     0.052     0.001   0.2% |
   calc_h_matrix:                    0.041     0.003   0.7% |
    Apply H:                         0.038     0.038   8.4% |--|
     HMM T:                          0.001     0.001   0.2% |
   diagonalize:                      0.008     0.008   1.8% ||
   rotate_psi:                       0.001     0.001   0.3% |
  calc. matrices:                    0.091     0.016   3.5% ||
   Apply H:                          0.076     0.075  16.7% |------|
    HMM T:                           0.001     0.001   0.3% |
  diagonalize:                       0.056     0.056  12.7% |----|
  rotate_psi:                        0.002     0.002   0.4% |
 Density:                            0.028     0.000   0.0% |
  Atomic density matrices:           0.002     0.002   0.4% |
  Mix:                               0.004     0.004   0.9% |
  Multipole moments:                 0.000     0.000   0.0% |
  Pseudo density:                    0.022     0.018   4.0% |-|
   Symmetrize density:               0.004     0.004   0.9% |
 Hamiltonian:                        0.030     0.001   0.2% |
  Atomic:                            0.022     0.001   0.2% |
   XC Correction:                    0.021     0.021   4.8% |-|
  Calculate atomic Hamiltonians:     0.001     0.001   0.2% |
  Communicate:                       0.000     0.000   0.0% |
  Poisson:                           0.000     0.000   0.0% |
  XC 3D grid:                        0.007     0.007   1.5% ||
 Orthonormalize:                     0.002     0.000   0.0% |
  calc_s_matrix:                     0.000     0.000   0.1% |
  inverse-cholesky:                  0.001     0.001   0.2% |
  projections:                       0.000     0.000   0.1% |
  rotate_psi_s:                      0.000     0.000   0.0% |
Set symmetry:                        0.004     0.004   0.8% |
Other:                               0.064     0.064  14.4% |-----|
-----------------------------------------------------------
Total:                                         0.445 100.0%

Memory usage: 132.31 MiB
Date: Tue Feb  4 18:55:48 2025
