
  ___ ___ ___ _ _ _  
 |   |   |_  | | | | 
 | | | | | . | | | | 
 |__ |  _|___|_____|  25.1.0
 |___|_|             

User:   zoe@Zoes-MacBook-Air.local
Date:   Tue Feb  4 18:51:17 2025
Arch:   arm64
Pid:    81345
CWD:    /Users/zoe/Documents/Python/TIF320_Computitional_molecular_physics
Python: 3.12.2
gpaw:   /opt/anaconda3/envs/tif320env/lib/python3.12/site-packages/gpaw
_gpaw:  /opt/anaconda3/envs/tif320env/lib/python3.12/site-packages/
        _gpaw.cpython-312-darwin.so
ase:    /opt/anaconda3/envs/tif320env/lib/python3.12/site-packages/ase (version 3.24.0)
numpy:  /opt/anaconda3/envs/tif320env/lib/python3.12/site-packages/numpy (version 2.0.1)
scipy:  /opt/anaconda3/envs/tif320env/lib/python3.12/site-packages/scipy (version 1.15.1)
libxc:  7.0.0
units:  Angstrom and eV
cores: 1
OpenMP: False
OMP_NUM_THREADS: 1

Input parameters:
  kpts: [8 8 8]
  mode: {ecut: 400.0,
         name: pw}

System changes: positions, numbers, cell, pbc, initial_charges, initial_magmoms 

Initialize ...

species:
  Al:
    name: Aluminium
    id: 2e6447feaea722efcff26bf034b25f30
    Z: 13.0
    valence: 3
    core: 10
    charge: 0.0
    file: /opt/anaconda3/envs/tif320env/gpaw-setups/gpaw-setups-24.11.0/Al.LDA.gz
    compensation charges: {type: gauss,
                           rc: 0.34,
                           lmax: 2}
    cutoffs: {filter: 1.91,
              core: 2.36}
    projectors:
      #              energy  rcut
      - 3s(2.00)    -7.830   1.085
      - 3p(1.00)    -2.783   1.085
      -  s          19.382   1.085
      -  p          24.428   1.085
      -  d           0.000   1.085
  
    # Using partial waves for Al as LCAO basis

Reference energy: -13156.842615  # eV

Spin-paired calculation

Convergence criteria:
 Maximum [total energy] change in last 3 cyles: 0.0005 eV / valence electron
 Maximum integral of absolute [dens]ity change: 0.0001 electrons / valence electron
 Maximum integral of absolute [eigenst]ate change: 4e-08 eV^2 / valence electron
 Maximum number of scf [iter]ations: 333
 (Square brackets indicate name in SCF output, whereas a 'c' in
 the SCF output indicates the quantity has converged.)

Symmetries present (total): 48

  ( 1  0  0)  ( 1  0  0)  ( 1  0  0)  ( 1  0  0)  ( 1  0  0)  ( 1  0  0)
  ( 0  1  0)  ( 0  1  0)  ( 0  0  1)  ( 0  0  1)  ( 0  0 -1)  ( 0  0 -1)
  ( 0  0  1)  ( 0  0 -1)  ( 0  1  0)  ( 0 -1  0)  ( 0  1  0)  ( 0 -1  0)

  ( 1  0  0)  ( 1  0  0)  ( 0  1  0)  ( 0  1  0)  ( 0  1  0)  ( 0  1  0)
  ( 0 -1  0)  ( 0 -1  0)  ( 1  0  0)  ( 1  0  0)  ( 0  0  1)  ( 0  0  1)
  ( 0  0  1)  ( 0  0 -1)  ( 0  0  1)  ( 0  0 -1)  ( 1  0  0)  (-1  0  0)

  ( 0  1  0)  ( 0  1  0)  ( 0  1  0)  ( 0  1  0)  ( 0  0  1)  ( 0  0  1)
  ( 0  0 -1)  ( 0  0 -1)  (-1  0  0)  (-1  0  0)  ( 1  0  0)  ( 1  0  0)
  ( 1  0  0)  (-1  0  0)  ( 0  0  1)  ( 0  0 -1)  ( 0  1  0)  ( 0 -1  0)

  ( 0  0  1)  ( 0  0  1)  ( 0  0  1)  ( 0  0  1)  ( 0  0  1)  ( 0  0  1)
  ( 0  1  0)  ( 0  1  0)  ( 0 -1  0)  ( 0 -1  0)  (-1  0  0)  (-1  0  0)
  ( 1  0  0)  (-1  0  0)  ( 1  0  0)  (-1  0  0)  ( 0  1  0)  ( 0 -1  0)

  ( 0  0 -1)  ( 0  0 -1)  ( 0  0 -1)  ( 0  0 -1)  ( 0  0 -1)  ( 0  0 -1)
  ( 1  0  0)  ( 1  0  0)  ( 0  1  0)  ( 0  1  0)  ( 0 -1  0)  ( 0 -1  0)
  ( 0  1  0)  ( 0 -1  0)  ( 1  0  0)  (-1  0  0)  ( 1  0  0)  (-1  0  0)

  ( 0  0 -1)  ( 0  0 -1)  ( 0 -1  0)  ( 0 -1  0)  ( 0 -1  0)  ( 0 -1  0)
  (-1  0  0)  (-1  0  0)  ( 1  0  0)  ( 1  0  0)  ( 0  0  1)  ( 0  0  1)
  ( 0  1  0)  ( 0 -1  0)  ( 0  0  1)  ( 0  0 -1)  ( 1  0  0)  (-1  0  0)

  ( 0 -1  0)  ( 0 -1  0)  ( 0 -1  0)  ( 0 -1  0)  (-1  0  0)  (-1  0  0)
  ( 0  0 -1)  ( 0  0 -1)  (-1  0  0)  (-1  0  0)  ( 0  1  0)  ( 0  1  0)
  ( 1  0  0)  (-1  0  0)  ( 0  0  1)  ( 0  0 -1)  ( 0  0  1)  ( 0  0 -1)

  (-1  0  0)  (-1  0  0)  (-1  0  0)  (-1  0  0)  (-1  0  0)  (-1  0  0)
  ( 0  0  1)  ( 0  0  1)  ( 0  0 -1)  ( 0  0 -1)  ( 0 -1  0)  ( 0 -1  0)
  ( 0  1  0)  ( 0 -1  0)  ( 0  1  0)  ( 0 -1  0)  ( 0  0  1)  ( 0  0 -1)

512 k-points: 8 x 8 x 8 Monkhorst-Pack grid
20 k-points in the irreducible part of the Brillouin zone
       k-points in crystal coordinates                weights
   0:     0.06250000    0.06250000    0.06250000          8/512
   1:     0.18750000    0.06250000    0.06250000         24/512
   2:     0.18750000    0.18750000    0.06250000         24/512
   3:     0.18750000    0.18750000    0.18750000          8/512
   4:     0.31250000    0.06250000    0.06250000         24/512
   5:     0.31250000    0.18750000    0.06250000         48/512
   6:     0.31250000    0.18750000    0.18750000         24/512
   7:     0.31250000    0.31250000    0.06250000         24/512
   8:     0.31250000    0.31250000    0.18750000         24/512
   9:     0.31250000    0.31250000    0.31250000          8/512
          ...
  19:     0.43750000    0.43750000    0.43750000          8/512

Wave functions: Plane wave expansion
  Cutoff energy: 400.000 eV
  Number of coefficients (min, max): 464, 476
  Pulay-stress correction: 0.000000 eV/Ang^3 (de/decut=0.000000)
  Using Numpy's FFT
  ScaLapack parameters: grid=1x1, blocksize=None
  Wavefunction extrapolation:
    Improved wavefunction reuse through dual PAW basis 

Occupation numbers: Fermi-Dirac:
  width: 0.1000  # eV
 

Eigensolver
   Davidson(niter=2) 

Densities:
  Coarse grid: 14*14*14 grid
  Fine grid: 28*28*28 grid
  Total Charge: 0.000000 

Density mixing:
  Method: separate
  Backend: pulay
  Linear mixing parameter: 0.05
  old densities: 5
  Damping of long wavelength oscillations: 50 

Hamiltonian:
  XC and Coulomb potentials evaluated on a 28*28*28 grid
  Using the LDA Exchange-Correlation functional
  External potential:
    NoExternalPotential
 

Memory estimate:
  Process memory now: 229.42 MiB
  Calculator: 4.20 MiB
    Density: 1.25 MiB
      Arrays: 0.54 MiB
      Localized functions: 0.50 MiB
      Mixer: 0.21 MiB
    Hamiltonian: 0.37 MiB
      Arrays: 0.36 MiB
      XC: 0.00 MiB
      Poisson: 0.00 MiB
      vbar: 0.01 MiB
    Wavefunctions: 2.58 MiB
      Arrays psit_nG: 1.16 MiB
      Eigensolver: 0.10 MiB
      Projections: 0.06 MiB
      Projectors: 1.00 MiB
      PW-descriptor: 0.25 MiB

Total number of cores used: 1

Number of atoms: 2
Number of atomic orbitals: 8
Number of bands in calculation: 8
Number of valence electrons: 6
Bands to converge: occupied

... initialized

Initializing position-dependent things.

Density initialized from atomic densities
Creating initial wave functions:
  8 bands from LCAO basis set

   .------.  
  /|      |  
 * |      |  
 | | Al   |  
 | .------.  
 |/      /   
 Al-----*    

Positions:
   0 Al     0.000000    0.000000    0.000000    ( 0.0000,  0.0000,  0.0000)
   1 Al     1.478275    1.478275    1.478275    ( 0.0000,  0.0000,  0.0000)

Unit cell:
           periodic     x           y           z      points  spacing
  1. axis:    yes    2.956550    0.000000    0.000000    14     0.2112
  2. axis:    yes    0.000000    2.956550    0.000000    14     0.2112
  3. axis:    yes    0.000000    0.000000    2.956550    14     0.2112

  Lengths:   2.956550   2.956550   2.956550
  Angles:   90.000000  90.000000  90.000000

Effective grid spacing dv^(1/3) = 0.2112

     iter     time        total  log10-change:
                         energy   eigst   dens
iter:   1 18:51:18    -7.692216
iter:   2 18:51:18    -7.694648   -2.55  -0.97
iter:   3 18:51:18    -7.694818c  -1.95  -0.98
iter:   4 18:51:18    -7.691466   -2.84  -1.12
iter:   5 18:51:18    -7.691979   -5.49  -2.44
iter:   6 18:51:18    -7.691387c  -4.76  -2.15
iter:   7 18:51:18    -7.691388c  -6.39  -3.46
iter:   8 18:51:19    -7.691388c  -8.21c -3.44
iter:   9 18:51:19    -7.691388c  -9.48c -3.56
iter:  10 18:51:19    -7.691388c  -8.94c -3.67
iter:  11 18:51:19    -7.691388c  -8.89c -3.42
iter:  12 18:51:19    -7.691388c  -7.69c -3.35
iter:  13 18:51:19    -7.691388c  -9.64c -4.81c

Converged after 13 iterations.

Dipole moment: (-0.000000, -0.000000, -0.000000) |e|*Ang

Energy contributions relative to reference atoms: (reference = -13156.842615)

Kinetic:        +29.603832
Potential:      -20.261932
External:        +0.000000
XC:             -16.998546
Entropy (-ST):   -0.020617
Local:           -0.024433
SIC:             +0.000000
--------------------------
Free energy:     -7.701696
Extrapolated:    -7.691388

Showing only first 2 kpts
 Kpt  Band  Eigenvalues  Occupancy
  0     1     10.24081    0.00559
  0     2     10.24081    0.00559
  0     3     11.46596    0.00000
  0     4     14.14254    0.00000

  1     1      7.29860    2.00000
  1     2     10.71995    0.00005
  1     3     11.73871    0.00000
  1     4     14.63359    0.00000


Fermi level: 9.65310

No gap
No difference between direct/indirect transitions
Timing:                              incl.     excl.
-----------------------------------------------------------
Hamiltonian:                         0.007     0.000   0.0% |
 Atomic:                             0.006     0.000   0.0% |
  XC Correction:                     0.005     0.005   0.3% |
 Calculate atomic Hamiltonians:      0.000     0.000   0.0% |
 Communicate:                        0.000     0.000   0.0% |
 Initialize Hamiltonian:             0.000     0.000   0.0% |
 Poisson:                            0.000     0.000   0.0% |
 XC 3D grid:                         0.001     0.001   0.0% |
LCAO initialization:                 0.105     0.003   0.2% |
 LCAO eigensolver:                   0.038     0.000   0.0% |
  Calculate projections:             0.000     0.000   0.0% |
  DenseAtomicCorrection:             0.000     0.000   0.0% |
  Distribute overlap matrix:         0.000     0.000   0.0% |
  Orbital Layouts:                   0.006     0.006   0.3% |
  Potential matrix:                  0.030     0.030   1.6% ||
  Sum over cells:                    0.001     0.001   0.1% |
 LCAO to grid:                       0.025     0.025   1.3% ||
 Set positions (LCAO WFS):           0.039     0.006   0.3% |
  Basic WFS set positions:           0.001     0.001   0.0% |
  Basis functions set positions:     0.000     0.000   0.0% |
  P tci:                             0.010     0.010   0.5% |
  ST tci:                            0.020     0.020   1.1% |
  mktci:                             0.003     0.003   0.1% |
PWDescriptor:                        0.001     0.001   0.0% |
SCF-cycle:                           1.703     0.010   0.5% |
 Davidson:                           1.489     0.161   8.6% |--|
  Apply H:                           0.215     0.210  11.3% |----|
   HMM T:                            0.004     0.004   0.2% |
  Subspace diag:                     0.286     0.003   0.2% |
   calc_h_matrix:                    0.231     0.015   0.8% |
    Apply H:                         0.215     0.211  11.3% |----|
     HMM T:                          0.004     0.004   0.2% |
   diagonalize:                      0.045     0.045   2.4% ||
   rotate_psi:                       0.007     0.007   0.4% |
  calc. matrices:                    0.499     0.070   3.7% ||
   Apply H:                          0.429     0.421  22.6% |--------|
    HMM T:                           0.008     0.008   0.4% |
  diagonalize:                       0.316     0.316  17.0% |------|
  rotate_psi:                        0.012     0.012   0.7% |
 Density:                            0.121     0.000   0.0% |
  Atomic density matrices:           0.006     0.006   0.3% |
  Mix:                               0.008     0.008   0.4% |
  Multipole moments:                 0.000     0.000   0.0% |
  Pseudo density:                    0.107     0.101   5.4% |-|
   Symmetrize density:               0.006     0.006   0.3% |
 Hamiltonian:                        0.080     0.001   0.1% |
  Atomic:                            0.065     0.001   0.1% |
   XC Correction:                    0.064     0.064   3.4% ||
  Calculate atomic Hamiltonians:     0.003     0.003   0.2% |
  Communicate:                       0.000     0.000   0.0% |
  Poisson:                           0.000     0.000   0.0% |
  XC 3D grid:                        0.010     0.010   0.5% |
 Orthonormalize:                     0.003     0.000   0.0% |
  calc_s_matrix:                     0.001     0.001   0.0% |
  inverse-cholesky:                  0.000     0.000   0.0% |
  projections:                       0.002     0.002   0.1% |
  rotate_psi_s:                      0.000     0.000   0.0% |
Set symmetry:                        0.012     0.012   0.7% |
Other:                               0.036     0.036   1.9% ||
-----------------------------------------------------------
Total:                                         1.863 100.0%

Memory usage: 230.05 MiB
Date: Tue Feb  4 18:51:19 2025
