
  ___ ___ ___ _ _ _  
 |   |   |_  | | | | 
 | | | | | . | | | | 
 |__ |  _|___|_____|  25.1.0
 |___|_|             

User:   zoe@Zoes-MacBook-Air.local
Date:   Tue Feb  4 17:08:35 2025
Arch:   arm64
Pid:    80761
CWD:    /Users/zoe/Documents/Python/TIF320_Computitional_molecular_physics
Python: 3.12.2
gpaw:   /opt/anaconda3/envs/tif320env/lib/python3.12/site-packages/gpaw
_gpaw:  /opt/anaconda3/envs/tif320env/lib/python3.12/site-packages/
        _gpaw.cpython-312-darwin.so
ase:    /opt/anaconda3/envs/tif320env/lib/python3.12/site-packages/ase (version 3.24.0)
numpy:  /opt/anaconda3/envs/tif320env/lib/python3.12/site-packages/numpy (version 2.0.1)
scipy:  /opt/anaconda3/envs/tif320env/lib/python3.12/site-packages/scipy (version 1.15.1)
libxc:  7.0.0
units:  Angstrom and eV
cores: 1
OpenMP: False
OMP_NUM_THREADS: 1

Input parameters:
  kpts: [8 8 8]
  mode: {ecut: 300.0,
         name: pw}

System changes: positions, numbers, cell, pbc, initial_charges, initial_magmoms 

Initialize ...

species:
  Al:
    name: Aluminium
    id: 2e6447feaea722efcff26bf034b25f30
    Z: 13.0
    valence: 3
    core: 10
    charge: 0.0
    file: /opt/anaconda3/envs/tif320env/gpaw-setups/gpaw-setups-24.11.0/Al.LDA.gz
    compensation charges: {type: gauss,
                           rc: 0.34,
                           lmax: 2}
    cutoffs: {filter: 1.91,
              core: 2.36}
    projectors:
      #              energy  rcut
      - 3s(2.00)    -7.830   1.085
      - 3p(1.00)    -2.783   1.085
      -  s          19.382   1.085
      -  p          24.428   1.085
      -  d           0.000   1.085
  
    # Using partial waves for Al as LCAO basis

Reference energy: -13156.842615  # eV

Spin-paired calculation

Convergence criteria:
 Maximum [total energy] change in last 3 cyles: 0.0005 eV / valence electron
 Maximum integral of absolute [dens]ity change: 0.0001 electrons / valence electron
 Maximum integral of absolute [eigenst]ate change: 4e-08 eV^2 / valence electron
 Maximum number of scf [iter]ations: 333
 (Square brackets indicate name in SCF output, whereas a 'c' in
 the SCF output indicates the quantity has converged.)

Symmetries present (total): 48

  ( 1  0  0)  ( 1  0  0)  ( 1  0  0)  ( 1  0  0)  ( 1  0  0)  ( 1  0  0)
  ( 0  1  0)  ( 0  1  0)  ( 0  0  1)  ( 0  0  1)  ( 0  0 -1)  ( 0  0 -1)
  ( 0  0  1)  ( 0  0 -1)  ( 0  1  0)  ( 0 -1  0)  ( 0  1  0)  ( 0 -1  0)

  ( 1  0  0)  ( 1  0  0)  ( 0  1  0)  ( 0  1  0)  ( 0  1  0)  ( 0  1  0)
  ( 0 -1  0)  ( 0 -1  0)  ( 1  0  0)  ( 1  0  0)  ( 0  0  1)  ( 0  0  1)
  ( 0  0  1)  ( 0  0 -1)  ( 0  0  1)  ( 0  0 -1)  ( 1  0  0)  (-1  0  0)

  ( 0  1  0)  ( 0  1  0)  ( 0  1  0)  ( 0  1  0)  ( 0  0  1)  ( 0  0  1)
  ( 0  0 -1)  ( 0  0 -1)  (-1  0  0)  (-1  0  0)  ( 1  0  0)  ( 1  0  0)
  ( 1  0  0)  (-1  0  0)  ( 0  0  1)  ( 0  0 -1)  ( 0  1  0)  ( 0 -1  0)

  ( 0  0  1)  ( 0  0  1)  ( 0  0  1)  ( 0  0  1)  ( 0  0  1)  ( 0  0  1)
  ( 0  1  0)  ( 0  1  0)  ( 0 -1  0)  ( 0 -1  0)  (-1  0  0)  (-1  0  0)
  ( 1  0  0)  (-1  0  0)  ( 1  0  0)  (-1  0  0)  ( 0  1  0)  ( 0 -1  0)

  ( 0  0 -1)  ( 0  0 -1)  ( 0  0 -1)  ( 0  0 -1)  ( 0  0 -1)  ( 0  0 -1)
  ( 1  0  0)  ( 1  0  0)  ( 0  1  0)  ( 0  1  0)  ( 0 -1  0)  ( 0 -1  0)
  ( 0  1  0)  ( 0 -1  0)  ( 1  0  0)  (-1  0  0)  ( 1  0  0)  (-1  0  0)

  ( 0  0 -1)  ( 0  0 -1)  ( 0 -1  0)  ( 0 -1  0)  ( 0 -1  0)  ( 0 -1  0)
  (-1  0  0)  (-1  0  0)  ( 1  0  0)  ( 1  0  0)  ( 0  0  1)  ( 0  0  1)
  ( 0  1  0)  ( 0 -1  0)  ( 0  0  1)  ( 0  0 -1)  ( 1  0  0)  (-1  0  0)

  ( 0 -1  0)  ( 0 -1  0)  ( 0 -1  0)  ( 0 -1  0)  (-1  0  0)  (-1  0  0)
  ( 0  0 -1)  ( 0  0 -1)  (-1  0  0)  (-1  0  0)  ( 0  1  0)  ( 0  1  0)
  ( 1  0  0)  (-1  0  0)  ( 0  0  1)  ( 0  0 -1)  ( 0  0  1)  ( 0  0 -1)

  (-1  0  0)  (-1  0  0)  (-1  0  0)  (-1  0  0)  (-1  0  0)  (-1  0  0)
  ( 0  0  1)  ( 0  0  1)  ( 0  0 -1)  ( 0  0 -1)  ( 0 -1  0)  ( 0 -1  0)
  ( 0  1  0)  ( 0 -1  0)  ( 0  1  0)  ( 0 -1  0)  ( 0  0  1)  ( 0  0 -1)

512 k-points: 8 x 8 x 8 Monkhorst-Pack grid
20 k-points in the irreducible part of the Brillouin zone
       k-points in crystal coordinates                weights
   0:     0.06250000    0.06250000    0.06250000          8/512
   1:     0.18750000    0.06250000    0.06250000         24/512
   2:     0.18750000    0.18750000    0.06250000         24/512
   3:     0.18750000    0.18750000    0.18750000          8/512
   4:     0.31250000    0.06250000    0.06250000         24/512
   5:     0.31250000    0.18750000    0.06250000         48/512
   6:     0.31250000    0.18750000    0.18750000         24/512
   7:     0.31250000    0.31250000    0.06250000         24/512
   8:     0.31250000    0.31250000    0.18750000         24/512
   9:     0.31250000    0.31250000    0.31250000          8/512
          ...
  19:     0.43750000    0.43750000    0.43750000          8/512

Wave functions: Plane wave expansion
  Cutoff energy: 300.000 eV
  Number of coefficients (min, max): 1677, 1704
  Pulay-stress correction: 0.000000 eV/Ang^3 (de/decut=0.000000)
  Using Numpy's FFT
  ScaLapack parameters: grid=1x1, blocksize=None
  Wavefunction extrapolation:
    Improved wavefunction reuse through dual PAW basis 

Occupation numbers: Fermi-Dirac:
  width: 0.1000  # eV
 

Eigensolver
   Davidson(niter=2) 

Densities:
  Coarse grid: 21*21*21 grid
  Fine grid: 42*42*42 grid
  Total Charge: 0.000000 

Density mixing:
  Method: separate
  Backend: pulay
  Linear mixing parameter: 0.05
  old densities: 5
  Damping of long wavelength oscillations: 50 

Hamiltonian:
  XC and Coulomb potentials evaluated on a 42*42*42 grid
  Using the LDA Exchange-Correlation functional
  External potential:
    NoExternalPotential
 

Memory estimate:
  Process memory now: 274.97 MiB
  Calculator: 14.61 MiB
    Density: 4.32 MiB
      Arrays: 1.84 MiB
      Localized functions: 1.78 MiB
      Mixer: 0.71 MiB
    Hamiltonian: 1.24 MiB
      Arrays: 1.20 MiB
      XC: 0.00 MiB
      Poisson: 0.00 MiB
      vbar: 0.04 MiB
    Wavefunctions: 9.05 MiB
      Arrays psit_nG: 4.16 MiB
      Eigensolver: 0.35 MiB
      Projections: 0.06 MiB
      Projectors: 3.60 MiB
      PW-descriptor: 0.87 MiB

Total number of cores used: 1

Number of atoms: 2
Number of atomic orbitals: 8
Number of bands in calculation: 8
Number of valence electrons: 6
Bands to converge: occupied

... initialized

Initializing position-dependent things.

Density initialized from atomic densities
Creating initial wave functions:
  8 bands from LCAO basis set

    .------------.  
   /|            |  
  / |            |  
 *  |            |  
 |  |            |  
 |  |    Al      |  
 |  .------------.  
 | /            /   
 |/            /    
 Al-----------*     

Positions:
   0 Al     0.000000    0.000000    0.000000    ( 0.0000,  0.0000,  0.0000)
   1 Al     2.612913    2.612913    2.612913    ( 0.0000,  0.0000,  0.0000)

Unit cell:
           periodic     x           y           z      points  spacing
  1. axis:    yes    5.225825    0.000000    0.000000    21     0.2488
  2. axis:    yes    0.000000    5.225825    0.000000    21     0.2488
  3. axis:    yes    0.000000    0.000000    5.225825    21     0.2488

  Lengths:   5.225825   5.225825   5.225825
  Angles:   90.000000  90.000000  90.000000

Effective grid spacing dv^(1/3) = 0.2488

     iter     time        total  log10-change:
                         energy   eigst   dens
iter:   1 17:08:36    -3.140627
iter:   2 17:08:36    -3.135696   -2.71  -0.96
iter:   3 17:08:36    -3.089788   -2.38  -0.99
iter:   4 17:08:37    -3.089114   -3.98  -1.81
iter:   5 17:08:37    -3.088986c  -4.79  -1.89
iter:   6 17:08:38    -3.089430c  -3.61  -1.89
iter:   7 17:08:38    -3.088727c  -4.85  -1.98
iter:   8 17:08:38    -3.089876c  -4.56  -2.27
iter:   9 17:08:38    -3.088420c  -4.12  -1.87
iter:  10 17:08:39    -3.088426c  -5.85  -3.61
iter:  11 17:08:39    -3.088425c  -6.55  -4.37c
iter:  12 17:08:40    -3.088426c  -7.42c -4.00
iter:  13 17:08:40    -3.088428c  -7.90c -4.43c

Converged after 13 iterations.

Dipole moment: (0.000000, 0.000000, 0.000000) |e|*Ang

Energy contributions relative to reference atoms: (reference = -13156.842615)

Kinetic:         -9.033237
Potential:       +6.023465
External:        +0.000000
XC:              -0.020139
Entropy (-ST):   -0.110347
Local:           -0.003344
SIC:             +0.000000
--------------------------
Free energy:     -3.143602
Extrapolated:    -3.088428

Showing only first 2 kpts
 Kpt  Band  Eigenvalues  Occupancy
  0     1     -4.16049    2.00000
  0     2     -0.29961    0.00382
  0     3     -0.29961    0.00382
  0     4     -0.06866    0.00038

  1     1     -4.29825    2.00000
  1     2     -0.55755    0.04921
  1     3     -0.16668    0.00101
  1     4      0.13386    0.00005


Fermi level: -0.92554

No gap
No difference between direct/indirect transitions
Timing:                              incl.     excl.
-----------------------------------------------------------
Hamiltonian:                         0.009     0.000   0.0% |
 Atomic:                             0.006     0.000   0.0% |
  XC Correction:                     0.006     0.006   0.1% |
 Calculate atomic Hamiltonians:      0.001     0.001   0.0% |
 Communicate:                        0.000     0.000   0.0% |
 Initialize Hamiltonian:             0.000     0.000   0.0% |
 Poisson:                            0.000     0.000   0.0% |
 XC 3D grid:                         0.003     0.003   0.1% |
LCAO initialization:                 0.063     0.004   0.1% |
 LCAO eigensolver:                   0.012     0.000   0.0% |
  Calculate projections:             0.000     0.000   0.0% |
  DenseAtomicCorrection:             0.000     0.000   0.0% |
  Distribute overlap matrix:         0.000     0.000   0.0% |
  Orbital Layouts:                   0.006     0.006   0.1% |
  Potential matrix:                  0.004     0.004   0.1% |
  Sum over cells:                    0.001     0.001   0.0% |
 LCAO to grid:                       0.036     0.036   0.8% |
 Set positions (LCAO WFS):           0.012     0.002   0.0% |
  Basic WFS set positions:           0.001     0.001   0.0% |
  Basis functions set positions:     0.000     0.000   0.0% |
  P tci:                             0.005     0.005   0.1% |
  ST tci:                            0.004     0.004   0.1% |
  mktci:                             0.001     0.001   0.0% |
PWDescriptor:                        0.002     0.002   0.0% |
SCF-cycle:                           4.434     0.011   0.2% |
 Davidson:                           4.029     1.502  33.0% |------------|
  Apply H:                           0.459     0.453   9.9% |---|
   HMM T:                            0.006     0.006   0.1% |
  Subspace diag:                     0.557     0.004   0.1% |
   calc_h_matrix:                    0.482     0.024   0.5% |
    Apply H:                         0.458     0.451   9.9% |---|
     HMM T:                          0.007     0.007   0.2% |
   diagonalize:                      0.046     0.046   1.0% |
   rotate_psi:                       0.025     0.025   0.6% |
  calc. matrices:                    1.120     0.225   4.9% |-|
   Apply H:                          0.895     0.882  19.4% |-------|
    HMM T:                           0.014     0.014   0.3% |
  diagonalize:                       0.337     0.337   7.4% |--|
  rotate_psi:                        0.054     0.054   1.2% |
 Density:                            0.259     0.000   0.0% |
  Atomic density matrices:           0.006     0.006   0.1% |
  Mix:                               0.020     0.020   0.4% |
  Multipole moments:                 0.000     0.000   0.0% |
  Pseudo density:                    0.232     0.214   4.7% |-|
   Symmetrize density:               0.018     0.018   0.4% |
 Hamiltonian:                        0.107     0.002   0.0% |
  Atomic:                            0.066     0.001   0.0% |
   XC Correction:                    0.064     0.064   1.4% ||
  Calculate atomic Hamiltonians:     0.008     0.008   0.2% |
  Communicate:                       0.000     0.000   0.0% |
  Poisson:                           0.001     0.001   0.0% |
  XC 3D grid:                        0.030     0.030   0.7% |
 Orthonormalize:                     0.028     0.000   0.0% |
  calc_s_matrix:                     0.001     0.001   0.0% |
  inverse-cholesky:                  0.000     0.000   0.0% |
  projections:                       0.026     0.026   0.6% |
  rotate_psi_s:                      0.001     0.001   0.0% |
Set symmetry:                        0.012     0.012   0.3% |
Other:                               0.035     0.035   0.8% |
-----------------------------------------------------------
Total:                                         4.556 100.0%

Memory usage: 289.28 MiB
Date: Tue Feb  4 17:08:40 2025
