
  ___ ___ ___ _ _ _  
 |   |   |_  | | | | 
 | | | | | . | | | | 
 |__ |  _|___|_____|  25.1.0
 |___|_|             

User:   zoe@dhcp-140-47.vpn.chalmers.se
Date:   Sun Feb 16 16:12:33 2025
Arch:   arm64
Pid:    56586
CWD:    /Users/zoe/Documents/GitHub/TIF320_Computitional_Metrials_and_Molecular_Physics
Python: 3.12.2
gpaw:   /opt/anaconda3/envs/tif320env/lib/python3.12/site-packages/gpaw
_gpaw:  /opt/anaconda3/envs/tif320env/lib/python3.12/site-packages/
        _gpaw.cpython-312-darwin.so
ase:    /opt/anaconda3/envs/tif320env/lib/python3.12/site-packages/ase (version 3.24.0)
numpy:  /opt/anaconda3/envs/tif320env/lib/python3.12/site-packages/numpy (version 2.0.1)
scipy:  /opt/anaconda3/envs/tif320env/lib/python3.12/site-packages/scipy (version 1.15.1)
libxc:  7.0.0
units:  Angstrom and eV
cores: 1
OpenMP: False
OMP_NUM_THREADS: 1

Input parameters:
  mode: fd
  xc: PBE

System changes: positions, numbers, cell, pbc, initial_charges, initial_magmoms 

Initialize ...

species:
  Na:
    name: Sodium
    id: d7ecbc49209718622bcbe287195dca2a
    Z: 11.0
    valence: 7
    core: 4
    charge: 0.0
    file: /opt/anaconda3/envs/tif320env/gpaw-setups/gpaw-setups-24.11.0/Na.PBE.gz
    compensation charges: {type: gauss,
                           rc: 0.37,
                           lmax: 2}
    cutoffs: {filter: 2.17,
              core: 2.59}
    projectors:
      #              energy  rcut
      - 3s(1.00)    -2.744   1.201
      - 2p(6.00)   -28.672   1.217
      - 3p(0.00)    -0.743   1.217
      -  s          24.468   1.201
      -  d           0.000   1.238
  
    # Using partial waves for Na as LCAO basis

Reference energy: -26511.662986  # eV

Spin-paired calculation

Convergence criteria:
 Maximum [total energy] change in last 3 cyles: 0.0005 eV / valence electron
 Maximum integral of absolute [dens]ity change: 0.0001 electrons / valence electron
 Maximum integral of absolute [eigenst]ate change: 4e-08 eV^2 / valence electron
 Maximum number of scf [iter]ations: 333
 (Square brackets indicate name in SCF output, whereas a 'c' in
 the SCF output indicates the quantity has converged.)

Symmetries present (total): 1

  ( 1  0  0)
  ( 0  1  0)
  ( 0  0  1)

1 k-point (Gamma)
1 k-point in the irreducible part of the Brillouin zone
       k-points in crystal coordinates                weights
   0:     0.00000000    0.00000000    0.00000000          1/1

Wave functions: Uniform real-space grid
  Kinetic energy operator: 6*3+1=19 point O(h^6) finite-difference Laplacian
  ScaLapack parameters: grid=1x1, blocksize=None
  Wavefunction extrapolation:
    Improved wavefunction reuse through dual PAW basis 

Occupation numbers: # Zero width 

Eigensolver
   Davidson(niter=2) 

Densities:
  Coarse grid: 80*80*80 grid
  Fine grid: 160*160*160 grid
  Total Charge: 0.000000 

Density mixing:
  Method: separate
  Backend: pulay
  Linear mixing parameter: 0.25
  old densities: 3
  Damping of long wavelength oscillations: 1  # (no daming) 

Hamiltonian:
  XC and Coulomb potentials evaluated on a 160*160*160 grid
  Using the PBE Exchange-Correlation functional
  Interpolation: tri-quintic (5. degree polynomial)
  Poisson solver: FastPoissonSolver using
    Stencil: 6*3+1=19 point O(h^6) finite-difference Laplacian
    FFT axes: []
    FST axes: [np.int64(0), np.int64(1), np.int64(2)]
 

XC parameters: PBE with 2 nearest neighbor stencil

Memory estimate:
  Process memory now: 1340.67 MiB
  Calculator: 463.55 MiB
    Density: 148.73 MiB
      Arrays: 99.53 MiB
      Localized functions: 26.63 MiB
      Mixer: 22.57 MiB
    Hamiltonian: 67.06 MiB
      Arrays: 65.10 MiB
      XC: 0.00 MiB
      Poisson: 0.00 MiB
      vbar: 1.96 MiB
    Wavefunctions: 247.77 MiB
      Arrays psit_nG: 112.85 MiB
      Eigensolver: 131.73 MiB
      Projections: 0.02 MiB
      Projectors: 3.18 MiB

Total number of cores used: 1

Number of atoms: 6
Number of atomic orbitals: 42
Number of bands in calculation: 30
Number of valence electrons: 42
Bands to converge: occupied

... initialized

Initializing position-dependent things.

Density initialized from atomic densities
Creating initial wave functions:
  30 bands from LCAO basis set

           .--------------------------------------.  
          /|                                      |  
         / |                                      |  
        /  |                                      |  
       /   |                                      |  
      /    |                                      |  
     /     |                                      |  
    /      |                                      |  
   /       |                                      |  
  /        |                                      |  
 *         |           Na                         |  
 |         |                                      |  
 |         |                Na                    |  
 |         |                                      |  
 |         |            Na                        |  
 |         |                    Na                |  
 |         |                                      |  
 |         |                 Na                   |  
 |         |                                      |  
 |         |             Na                       |  
 |         .--------------------------------------.  
 |        /                                      /   
 |       /                                      /    
 |      /                                      /     
 |     /                                      /      
 |    /                                      /       
 |   /                                      /        
 |  /                                      /         
 | /                                      /          
 |/                                      /           
 *--------------------------------------*            

Positions:
   0 Na    11.502275    4.976887    9.695091    ( 0.0000,  0.0000,  0.0000)
   1 Na     9.104683    7.122215   10.758768    ( 0.0000,  0.0000,  0.0000)
   2 Na     6.646427    9.327020   11.587348    ( 0.0000,  0.0000,  0.0000)
   3 Na     7.651366    8.026647    5.004801    ( 0.0000,  0.0000,  0.0000)
   4 Na     9.641944    6.441617    7.256888    ( 0.0000,  0.0000,  0.0000)
   5 Na     7.023090    8.723321    8.276956    ( 0.0000,  0.0000,  0.0000)

Unit cell:
           periodic     x           y           z      points  spacing
  1. axis:    no    16.000000    0.000000    0.000000    80     0.2000
  2. axis:    no     0.000000   16.000000    0.000000    80     0.2000
  3. axis:    no     0.000000    0.000000   16.000000    80     0.2000

  Lengths:  16.000000  16.000000  16.000000
  Angles:   90.000000  90.000000  90.000000

Effective grid spacing dv^(1/3) = 0.2000

     iter     time        total  log10-change:
                         energy   eigst   dens
iter:   1 16:12:37    -5.016786
iter:   2 16:12:39    -4.953035   -0.58  -1.34
iter:   3 16:12:40    -4.964446   -0.76  -1.53
iter:   4 16:12:42    -4.979360   -1.04  -1.88
iter:   5 16:12:44    -4.985442c  -1.41  -2.44
iter:   6 16:12:46    -4.987258c  -1.78  -2.52
iter:   7 16:12:48    -4.988456c  -2.07  -2.67
iter:   8 16:12:50    -4.988801c  -2.45  -3.19
iter:   9 16:12:52    -4.988985c  -2.81  -3.14
iter:  10 16:12:54    -4.989144c  -3.05  -3.04
iter:  11 16:12:56    -4.989234c  -3.33  -3.09
iter:  12 16:12:58    -4.989290c  -3.51  -3.21
iter:  13 16:13:00    -4.989301c  -4.01  -3.79
iter:  14 16:13:02    -4.989311c  -4.27  -3.78
iter:  15 16:13:04    -4.989314c  -4.68  -4.19c
iter:  16 16:13:06    -4.989315c  -5.05  -4.42c
iter:  17 16:13:08    -4.989316c  -5.50  -4.75c
iter:  18 16:13:10    -4.989316c  -5.89  -4.72c
iter:  19 16:13:12    -4.989316c  -6.23  -4.73c
iter:  20 16:13:14    -4.989316c  -6.55  -4.75c
iter:  21 16:13:16    -4.989316c  -6.89  -5.10c
iter:  22 16:13:18    -4.989316c  -6.98  -5.03c
iter:  23 16:13:20    -4.989316c  -7.44c -5.65c

Converged after 23 iterations.

Dipole moment: (0.044120, -0.021907, 0.056555) |e|*Ang

Energy contributions relative to reference atoms: (reference = -26511.662986)

Kinetic:         +4.764822
Potential:       -4.616023
External:        +0.000000
XC:              -4.954131
Entropy (-ST):   +0.000000
Local:           -0.183985
SIC:             +0.000000
--------------------------
Free energy:     -4.989316
Extrapolated:    -4.989316

 Band  Eigenvalues  Occupancy
    0    -27.99520    2.00000
    1    -27.99483    2.00000
    2    -27.98893    2.00000
    3    -27.98816    2.00000
    4    -27.98746    2.00000
    5    -27.98166    2.00000
    6    -27.98072    2.00000
    7    -27.98041    2.00000
    8    -27.97435    2.00000
    9    -27.89467    2.00000
   10    -27.88728    2.00000
   11    -27.88539    2.00000
   12    -27.88443    2.00000
   13    -27.88082    2.00000
   14    -27.87977    2.00000
   15    -27.84261    2.00000
   16    -27.84145    2.00000
   17    -27.83734    2.00000
   18     -3.96807    2.00000
   19     -3.01964    2.00000
   20     -3.01440    2.00000
   21     -1.76317    0.00000
   22     -1.66573    0.00000
   23     -1.64552    0.00000
   24     -1.43057    0.00000
   25     -0.68748    0.00000
   26     -0.65117    0.00000
   27     -0.62217    0.00000
   28     -0.61494    0.00000
   29     -0.50996    0.00000

Fermi level: -2.38879

Gap: 1.251 eV
Transition (v -> c):
  (s=0, k=0, n=20, [0.00, 0.00, 0.00]) -> (s=0, k=0, n=21, [0.00, 0.00, 0.00])
No difference between direct/indirect transitions

Forces in eV/Ang:
  0 Na   -0.00333    0.00234   -0.00175
  1 Na   -0.00553    0.00616   -0.00285
  2 Na   -0.00021   -0.00445   -0.00330
  3 Na   -0.00165   -0.00096    0.00063
  4 Na   -0.00321    0.00267    0.00371
  5 Na    0.00217   -0.00194   -0.00498

Timing:                              incl.     excl.
-----------------------------------------------------------
Forces:                              0.170     0.170   0.4% |
Hamiltonian:                         0.569     0.000   0.0% |
 Atomic:                             0.050     0.000   0.0% |
  XC Correction:                     0.050     0.050   0.1% |
 Calculate atomic Hamiltonians:      0.004     0.004   0.0% |
 Communicate:                        0.000     0.000   0.0% |
 Hartree integrate/restrict:         0.011     0.011   0.0% |
 Initialize Hamiltonian:             0.001     0.001   0.0% |
 Poisson:                            0.148     0.006   0.0% |
  Communicate from 1D:               0.018     0.018   0.0% |
  Communicate from 2D:               0.018     0.018   0.0% |
  Communicate to 1D:                 0.018     0.018   0.0% |
  Communicate to 2D:                 0.018     0.018   0.0% |
  FFT 1D:                            0.020     0.020   0.0% |
  FFT 2D:                            0.051     0.051   0.1% |
 XC 3D grid:                         0.352     0.352   0.8% |
 vbar:                               0.003     0.003   0.0% |
LCAO initialization:                 0.077     0.006   0.0% |
 LCAO eigensolver:                   0.018     0.000   0.0% |
  Calculate projections:             0.000     0.000   0.0% |
  DenseAtomicCorrection:             0.000     0.000   0.0% |
  Distribute overlap matrix:         0.000     0.000   0.0% |
  Orbital Layouts:                   0.000     0.000   0.0% |
  Potential matrix:                  0.018     0.018   0.0% |
 LCAO to grid:                       0.048     0.048   0.1% |
 Set positions (LCAO WFS):           0.004     0.001   0.0% |
  Basic WFS set positions:           0.000     0.000   0.0% |
  Basis functions set positions:     0.000     0.000   0.0% |
  P tci:                             0.002     0.002   0.0% |
  ST tci:                            0.001     0.001   0.0% |
  mktci:                             0.000     0.000   0.0% |
SCF-cycle:                          44.742     0.008   0.0% |
 Davidson:                          31.141    11.026  23.6% |--------|
  Apply hamiltonian:                 3.065     3.065   6.6% |--|
  Subspace diag:                     4.574     0.001   0.0% |
   calc_h_matrix:                    3.581     0.506   1.1% |
    Apply hamiltonian:               3.075     3.075   6.6% |--|
   diagonalize:                      0.003     0.003   0.0% |
   rotate_psi:                       0.988     0.988   2.1% ||
  calc. matrices:                   10.902     4.804  10.3% |---|
   Apply hamiltonian:                6.098     6.098  13.1% |----|
  diagonalize:                       0.026     0.026   0.1% |
  rotate_psi:                        1.549     1.549   3.3% ||
 Density:                            0.456     0.000   0.0% |
  Atomic density matrices:           0.005     0.005   0.0% |
  Mix:                               0.373     0.373   0.8% |
  Multipole moments:                 0.001     0.001   0.0% |
  Pseudo density:                    0.077     0.077   0.2% |
   Symmetrize density:               0.000     0.000   0.0% |
 Hamiltonian:                       13.072     0.001   0.0% |
  Atomic:                            1.389     0.006   0.0% |
   XC Correction:                    1.383     1.383   3.0% ||
  Calculate atomic Hamiltonians:     0.085     0.085   0.2% |
  Communicate:                       0.000     0.000   0.0% |
  Hartree integrate/restrict:        0.251     0.251   0.5% |
  Poisson:                           3.720     0.139   0.3% |
   Communicate from 1D:              0.420     0.420   0.9% |
   Communicate from 2D:              0.453     0.453   1.0% |
   Communicate to 1D:                0.473     0.473   1.0% |
   Communicate to 2D:                0.415     0.415   0.9% |
   FFT 1D:                           0.534     0.534   1.1% |
   FFT 2D:                           1.286     1.286   2.8% ||
  XC 3D grid:                        7.587     7.587  16.2% |-----|
  vbar:                              0.040     0.040   0.1% |
 Orthonormalize:                     0.065     0.000   0.0% |
  calc_s_matrix:                     0.016     0.016   0.0% |
  inverse-cholesky:                  0.000     0.000   0.0% |
  projections:                       0.014     0.014   0.0% |
  rotate_psi_s:                      0.035     0.035   0.1% |
Set symmetry:                        0.000     0.000   0.0% |
Other:                               1.149     1.149   2.5% ||
-----------------------------------------------------------
Total:                                        46.707 100.0%

Memory usage: 1.31 GiB
Date: Sun Feb 16 16:13:20 2025
