6
Lattice="16.0 0.0 0.0 0.0 16.0 0.0 0.0 0.0 16.0" Properties=species:S:1:pos:R:3:magmoms:R:1:forces:R:3 energy=-4.989316141207914 free_energy=-4.989316141207914 dipole="0.0441198318957067 -0.02190687100778325 0.05655489199000034" magmom=0.0 pbc="F F F"
Na      11.50227483       4.97688708       9.69509057       0.00000000      -0.00333310       0.00234325      -0.00174555
Na       9.10468307       7.12221456      10.75876781       0.00000000      -0.00553292       0.00616296      -0.00284828
Na       6.64642723       9.32702022      11.58734810       0.00000000      -0.00021411      -0.00444685      -0.00329719
Na       7.65136581       8.02664682       5.00480117       0.00000000      -0.00165491      -0.00096224       0.00062794
Na       9.64194379       6.44161653       7.25688794       0.00000000      -0.00320633       0.00266545       0.00370503
Na       7.02309006       8.72332146       8.27695584       0.00000000       0.00216803      -0.00194310      -0.00498278
