
  ___ ___ ___ _ _ _  
 |   |   |_  | | | | 
 | | | | | . | | | | 
 |__ |  _|___|_____|  25.1.0
 |___|_|             

User:   zoe@dhcp-140-47.vpn.chalmers.se
Date:   Sun Feb 16 16:36:37 2025
Arch:   arm64
Pid:    57063
CWD:    /Users/zoe/Documents/GitHub/TIF320_Computitional_Metrials_and_Molecular_Physics
Python: 3.12.2
gpaw:   /opt/anaconda3/envs/tif320env/lib/python3.12/site-packages/gpaw
_gpaw:  /opt/anaconda3/envs/tif320env/lib/python3.12/site-packages/
        _gpaw.cpython-312-darwin.so
ase:    /opt/anaconda3/envs/tif320env/lib/python3.12/site-packages/ase (version 3.24.0)
numpy:  /opt/anaconda3/envs/tif320env/lib/python3.12/site-packages/numpy (version 2.0.1)
scipy:  /opt/anaconda3/envs/tif320env/lib/python3.12/site-packages/scipy (version 1.15.1)
libxc:  7.0.0
units:  Angstrom and eV
cores: 1
OpenMP: False
OMP_NUM_THREADS: 1

Input parameters:
  mode: fd
  xc: PBE

System changes: positions, numbers, cell, pbc, initial_charges, initial_magmoms 

Initialize ...

species:
  Na:
    name: Sodium
    id: d7ecbc49209718622bcbe287195dca2a
    Z: 11.0
    valence: 7
    core: 4
    charge: 0.0
    file: /opt/anaconda3/envs/tif320env/gpaw-setups/gpaw-setups-24.11.0/Na.PBE.gz
    compensation charges: {type: gauss,
                           rc: 0.37,
                           lmax: 2}
    cutoffs: {filter: 2.17,
              core: 2.59}
    projectors:
      #              energy  rcut
      - 3s(1.00)    -2.744   1.201
      - 2p(6.00)   -28.672   1.217
      - 3p(0.00)    -0.743   1.217
      -  s          24.468   1.201
      -  d           0.000   1.238
  
    # Using partial waves for Na as LCAO basis

Reference energy: -26511.662986  # eV

Spin-paired calculation

Convergence criteria:
 Maximum [total energy] change in last 3 cyles: 0.0005 eV / valence electron
 Maximum integral of absolute [dens]ity change: 0.0001 electrons / valence electron
 Maximum integral of absolute [eigenst]ate change: 4e-08 eV^2 / valence electron
 Maximum number of scf [iter]ations: 333
 (Square brackets indicate name in SCF output, whereas a 'c' in
 the SCF output indicates the quantity has converged.)

Symmetries present (total): 1

  ( 1  0  0)
  ( 0  1  0)
  ( 0  0  1)

1 k-point (Gamma)
1 k-point in the irreducible part of the Brillouin zone
       k-points in crystal coordinates                weights
   0:     0.00000000    0.00000000    0.00000000          1/1

Wave functions: Uniform real-space grid
  Kinetic energy operator: 6*3+1=19 point O(h^6) finite-difference Laplacian
  ScaLapack parameters: grid=1x1, blocksize=None
  Wavefunction extrapolation:
    Improved wavefunction reuse through dual PAW basis 

Occupation numbers: # Zero width 

Eigensolver
   Davidson(niter=2) 

Densities:
  Coarse grid: 80*80*80 grid
  Fine grid: 160*160*160 grid
  Total Charge: 0.000000 

Density mixing:
  Method: separate
  Backend: pulay
  Linear mixing parameter: 0.25
  old densities: 3
  Damping of long wavelength oscillations: 1  # (no daming) 

Hamiltonian:
  XC and Coulomb potentials evaluated on a 160*160*160 grid
  Using the PBE Exchange-Correlation functional
  Interpolation: tri-quintic (5. degree polynomial)
  Poisson solver: FastPoissonSolver using
    Stencil: 6*3+1=19 point O(h^6) finite-difference Laplacian
    FFT axes: []
    FST axes: [np.int64(0), np.int64(1), np.int64(2)]
 

XC parameters: PBE with 2 nearest neighbor stencil

Memory estimate:
  Process memory now: 593.41 MiB
  Calculator: 463.55 MiB
    Density: 148.73 MiB
      Arrays: 99.53 MiB
      Localized functions: 26.63 MiB
      Mixer: 22.57 MiB
    Hamiltonian: 67.06 MiB
      Arrays: 65.10 MiB
      XC: 0.00 MiB
      Poisson: 0.00 MiB
      vbar: 1.96 MiB
    Wavefunctions: 247.77 MiB
      Arrays psit_nG: 112.85 MiB
      Eigensolver: 131.73 MiB
      Projections: 0.02 MiB
      Projectors: 3.18 MiB

Total number of cores used: 1

Number of atoms: 6
Number of atomic orbitals: 42
Number of bands in calculation: 30
Number of valence electrons: 42
Bands to converge: occupied

... initialized

Initializing position-dependent things.

Density initialized from atomic densities
Creating initial wave functions:
  30 bands from LCAO basis set

           .--------------------------------------.  
          /|                                      |  
         / |                                      |  
        /  |                                      |  
       /   |                                      |  
      /    |                                      |  
     /     |                                      |  
    /      |                                      |  
   /       |                                      |  
  /        |                                      |  
 *         |           Na                         |  
 |         |                                      |  
 |         |                Na                    |  
 |         |                                      |  
 |         |            Na                        |  
 |         |                    Na                |  
 |         |                                      |  
 |         |                Na                    |  
 |         |                                      |  
 |         |             Na                       |  
 |         .--------------------------------------.  
 |        /                                      /   
 |       /                                      /    
 |      /                                      /     
 |     /                                      /      
 |    /                                      /       
 |   /                                      /        
 |  /                                      /         
 | /                                      /          
 |/                                      /           
 *--------------------------------------*            

Positions:
   0 Na    11.424955    5.046215    9.661160    ( 0.0000,  0.0000,  0.0000)
   1 Na     9.091214    7.135542   10.719357    ( 0.0000,  0.0000,  0.0000)
   2 Na     6.710298    9.263471   11.516303    ( 0.0000,  0.0000,  0.0000)
   3 Na     7.680133    8.011559    5.125248    ( 0.0000,  0.0000,  0.0000)
   4 Na     9.624253    6.463545    7.292195    ( 0.0000,  0.0000,  0.0000)
   5 Na     7.055205    8.690646    8.283979    ( 0.0000,  0.0000,  0.0000)

Unit cell:
           periodic     x           y           z      points  spacing
  1. axis:    no    16.000000    0.000000    0.000000    80     0.2000
  2. axis:    no     0.000000   16.000000    0.000000    80     0.2000
  3. axis:    no     0.000000    0.000000   16.000000    80     0.2000

  Lengths:  16.000000  16.000000  16.000000
  Angles:   90.000000  90.000000  90.000000

Effective grid spacing dv^(1/3) = 0.2000

     iter     time        total  log10-change:
                         energy   eigst   dens
iter:   1 16:36:40    -4.996085
iter:   2 16:36:42    -4.934160   -0.58  -1.35
iter:   3 16:36:44    -4.945832   -0.78  -1.55
iter:   4 16:36:45    -4.959981   -1.07  -1.90
iter:   5 16:36:47    -4.965986c  -1.43  -2.44
iter:   6 16:36:49    -4.967799c  -1.80  -2.56
iter:   7 16:36:51    -4.968966c  -2.06  -2.67
iter:   8 16:36:52    -4.969271c  -2.46  -3.22
iter:   9 16:36:54    -4.969418c  -2.85  -3.18
iter:  10 16:36:56    -4.969611c  -3.03  -3.04
iter:  11 16:36:57    -4.969677c  -3.36  -3.26
iter:  12 16:36:59    -4.969715c  -3.61  -3.45
iter:  13 16:37:01    -4.969728c  -4.04  -3.86
iter:  14 16:37:02    -4.969734c  -4.35  -3.96
iter:  15 16:37:04    -4.969736c  -4.90  -4.42c
iter:  16 16:37:06    -4.969737c  -5.17  -4.53c
iter:  17 16:37:07    -4.969737c  -5.66  -4.63c
iter:  18 16:37:09    -4.969737c  -6.05  -5.04c
iter:  19 16:37:11    -4.969737c  -6.36  -5.38c
iter:  20 16:37:12    -4.969737c  -6.66  -5.34c
iter:  21 16:37:14    -4.969737c  -7.05  -5.33c
iter:  22 16:37:16    -4.969737c  -7.29  -4.92c
iter:  23 16:37:17    -4.969737c  -7.48c -5.12c

Converged after 23 iterations.

Dipole moment: (0.036649, -0.016788, 0.050542) |e|*Ang

Energy contributions relative to reference atoms: (reference = -26511.662986)

Kinetic:         +6.466618
Potential:       -5.889052
External:        +0.000000
XC:              -5.363404
Entropy (-ST):   +0.000000
Local:           -0.183899
SIC:             +0.000000
--------------------------
Free energy:     -4.969737
Extrapolated:    -4.969737

 Band  Eigenvalues  Occupancy
    0    -27.97976    2.00000
    1    -27.97729    2.00000
    2    -27.97678    2.00000
    3    -27.97540    2.00000
    4    -27.97324    2.00000
    5    -27.97187    2.00000
    6    -27.96829    2.00000
    7    -27.96566    2.00000
    8    -27.96434    2.00000
    9    -27.87098    2.00000
   10    -27.85998    2.00000
   11    -27.85773    2.00000
   12    -27.85642    2.00000
   13    -27.85381    2.00000
   14    -27.85249    2.00000
   15    -27.81872    2.00000
   16    -27.81737    2.00000
   17    -27.81260    2.00000
   18     -4.03833    2.00000
   19     -3.03927    2.00000
   20     -3.03865    2.00000
   21     -1.74506    0.00000
   22     -1.65025    0.00000
   23     -1.63456    0.00000
   24     -1.47400    0.00000
   25     -0.69644    0.00000
   26     -0.65833    0.00000
   27     -0.59633    0.00000
   28     -0.58856    0.00000
   29     -0.48798    0.00000

Fermi level: -2.39185

Gap: 1.294 eV
Transition (v -> c):
  (s=0, k=0, n=20, [0.00, 0.00, 0.00]) -> (s=0, k=0, n=21, [0.00, 0.00, 0.00])
No difference between direct/indirect transitions

Forces in eV/Ang:
  0 Na    0.06754   -0.05911    0.03102
  1 Na    0.01937   -0.01885    0.03536
  2 Na   -0.05880    0.06040    0.06530
  3 Na   -0.02549    0.01420   -0.10757
  4 Na    0.01893   -0.02209   -0.03177
  5 Na   -0.03041    0.03067   -0.00381

System changes: positions 

Initializing position-dependent things.

Density initialized from wave functions
           .--------------------------------------.  
          /|                                      |  
         / |                                      |  
        /  |                                      |  
       /   |                                      |  
      /    |                                      |  
     /     |                                      |  
    /      |                                      |  
   /       |                                      |  
  /        |                                      |  
 *         |           Na                         |  
 |         |                                      |  
 |         |                Na                    |  
 |         |                                      |  
 |         |            Na                        |  
 |         |                    Na                |  
 |         |                                      |  
 |         |                Na                    |  
 |         |                                      |  
 |         |             Na                       |  
 |         .--------------------------------------.  
 |        /                                      /   
 |       /                                      /    
 |      /                                      /     
 |     /                                      /      
 |    /                                      /       
 |   /                                      /        
 |  /                                      /         
 | /                                      /          
 |/                                      /           
 *--------------------------------------*            

Positions:
   0 Na    11.425920    5.045370    9.661603    ( 0.0000,  0.0000,  0.0000)
   1 Na     9.091491    7.135272   10.719863    ( 0.0000,  0.0000,  0.0000)
   2 Na     6.709458    9.264334   11.517235    ( 0.0000,  0.0000,  0.0000)
   3 Na     7.679769    8.011761    5.123711    ( 0.0000,  0.0000,  0.0000)
   4 Na     9.624524    6.463229    7.291741    ( 0.0000,  0.0000,  0.0000)
   5 Na     7.054770    8.691084    8.283925    ( 0.0000,  0.0000,  0.0000)

Unit cell:
           periodic     x           y           z      points  spacing
  1. axis:    no    16.000000    0.000000    0.000000    80     0.2000
  2. axis:    no     0.000000   16.000000    0.000000    80     0.2000
  3. axis:    no     0.000000    0.000000   16.000000    80     0.2000

  Lengths:  16.000000  16.000000  16.000000
  Angles:   90.000000  90.000000  90.000000

Effective grid spacing dv^(1/3) = 0.2000

     iter     time        total  log10-change:
                         energy   eigst   dens
iter:   1 16:37:19    -4.970291   -4.31
iter:   2 16:37:21    -4.970284   -5.28  -3.69
iter:   3 16:37:23    -4.970284c  -5.92  -4.11c
iter:   4 16:37:24    -4.970284c  -6.44  -4.47c
iter:   5 16:37:26    -4.970284c  -6.83  -4.97c
iter:   6 16:37:28    -4.970284c  -7.29  -5.24c
iter:   7 16:37:30    -4.970284c  -7.54c -5.28c

Converged after 7 iterations.

Dipole moment: (0.036848, -0.016933, 0.050710) |e|*Ang

Energy contributions relative to reference atoms: (reference = -26511.662986)

Kinetic:         +6.445399
Potential:       -5.873564
External:        +0.000000
XC:              -5.358235
Entropy (-ST):   +0.000000
Local:           -0.183883
SIC:             +0.000000
--------------------------
Free energy:     -4.970284
Extrapolated:    -4.970284

 Band  Eigenvalues  Occupancy
    0    -27.97984    2.00000
    1    -27.97740    2.00000
    2    -27.97681    2.00000
    3    -27.97545    2.00000
    4    -27.97330    2.00000
    5    -27.97187    2.00000
    6    -27.96837    2.00000
    7    -27.96578    2.00000
    8    -27.96439    2.00000
    9    -27.87123    2.00000
   10    -27.86028    2.00000
   11    -27.85806    2.00000
   12    -27.85676    2.00000
   13    -27.85411    2.00000
   14    -27.85281    2.00000
   15    -27.81896    2.00000
   16    -27.81765    2.00000
   17    -27.81287    2.00000
   18     -4.03738    2.00000
   19     -3.03903    2.00000
   20     -3.03831    2.00000
   21     -1.74526    0.00000
   22     -1.65048    0.00000
   23     -1.63468    0.00000
   24     -1.47341    0.00000
   25     -0.69636    0.00000
   26     -0.65830    0.00000
   27     -0.59690    0.00000
   28     -0.58910    0.00000
   29     -0.48837    0.00000

Fermi level: -2.39179

Gap: 1.293 eV
Transition (v -> c):
  (s=0, k=0, n=20, [0.00, 0.00, 0.00]) -> (s=0, k=0, n=21, [0.00, 0.00, 0.00])
No difference between direct/indirect transitions

Forces in eV/Ang:
  0 Na    0.06669   -0.05846    0.03072
  1 Na    0.01884   -0.01839    0.03476
  2 Na   -0.05793    0.05955    0.06407
  3 Na   -0.02537    0.01397   -0.10599
  4 Na    0.01853   -0.02168   -0.03126
  5 Na   -0.02994    0.03011   -0.00398

System changes: positions 

Initializing position-dependent things.

Density initialized from wave functions
           .--------------------------------------.  
          /|                                      |  
         / |                                      |  
        /  |                                      |  
       /   |                                      |  
      /    |                                      |  
     /     |                                      |  
    /      |                                      |  
   /       |                                      |  
  /        |                                      |  
 *         |           Na                         |  
 |         |                                      |  
 |         |                Na                    |  
 |         |                                      |  
 |         |            Na                        |  
 |         |                    Na                |  
 |         |                                      |  
 |         |                 Na                   |  
 |         |                                      |  
 |         |             Na                       |  
 |         .--------------------------------------.  
 |        /                                      /   
 |       /                                      /    
 |      /                                      /     
 |     /                                      /      
 |    /                                      /       
 |   /                                      /        
 |  /                                      /         
 | /                                      /          
 |/                                      /           
 *--------------------------------------*            

Positions:
   0 Na    11.490636    4.988637    9.691409    ( 0.0000,  0.0000,  0.0000)
   1 Na     9.109775    7.117426   10.753598    ( 0.0000,  0.0000,  0.0000)
   2 Na     6.653245    9.322124   11.579409    ( 0.0000,  0.0000,  0.0000)
   3 Na     7.655154    8.025317    5.020863    ( 0.0000,  0.0000,  0.0000)
   4 Na     9.642509    6.442189    7.261403    ( 0.0000,  0.0000,  0.0000)
   5 Na     7.025713    8.720306    8.280065    ( 0.0000,  0.0000,  0.0000)

Unit cell:
           periodic     x           y           z      points  spacing
  1. axis:    no    16.000000    0.000000    0.000000    80     0.2000
  2. axis:    no     0.000000   16.000000    0.000000    80     0.2000
  3. axis:    no     0.000000    0.000000   16.000000    80     0.2000

  Lengths:  16.000000  16.000000  16.000000
  Angles:   90.000000  90.000000  90.000000

Effective grid spacing dv^(1/3) = 0.2000

     iter     time        total  log10-change:
                         energy   eigst   dens
iter:   1 16:37:32    -5.020848   -0.71
iter:   2 16:37:33    -4.993394   -1.68  -1.87
iter:   3 16:37:35    -4.988667   -2.28  -2.26
iter:   4 16:37:37    -4.988944c  -2.85  -2.65
iter:   5 16:37:38    -4.988966c  -3.13  -2.93
iter:   6 16:37:40    -4.988993c  -3.68  -3.41
iter:   7 16:37:42    -4.989012c  -3.98  -3.45
iter:   8 16:37:43    -4.989019c  -4.39  -3.84
iter:   9 16:37:45    -4.989026c  -4.53  -3.80
iter:  10 16:37:47    -4.989028c  -4.94  -4.41c
iter:  11 16:37:48    -4.989028c  -5.29  -4.50c
iter:  12 16:37:50    -4.989029c  -5.66  -4.72c
iter:  13 16:37:52    -4.989029c  -5.93  -4.83c
iter:  14 16:37:53    -4.989029c  -6.47  -5.28c
iter:  15 16:37:55    -4.989029c  -6.79  -5.35c
iter:  16 16:37:57    -4.989029c  -7.15  -5.52c
iter:  17 16:37:59    -4.989029c  -7.56c -5.69c

Converged after 17 iterations.

Dipole moment: (0.046254, -0.023667, 0.056421) |e|*Ang

Energy contributions relative to reference atoms: (reference = -26511.662986)

Kinetic:         +4.958916
Potential:       -4.762605
External:        +0.000000
XC:              -5.001388
Entropy (-ST):   +0.000000
Local:           -0.183952
SIC:             +0.000000
--------------------------
Free energy:     -4.989029
Extrapolated:    -4.989029

 Band  Eigenvalues  Occupancy
    0    -27.99432    2.00000
    1    -27.99357    2.00000
    2    -27.98828    2.00000
    3    -27.98573    2.00000
    4    -27.98465    2.00000
    5    -27.97913    2.00000
    6    -27.97796    2.00000
    7    -27.97741    2.00000
    8    -27.97182    2.00000
    9    -27.89192    2.00000
   10    -27.88476    2.00000
   11    -27.88266    2.00000
   12    -27.88012    2.00000
   13    -27.87818    2.00000
   14    -27.87590    2.00000
   15    -27.84056    2.00000
   16    -27.83844    2.00000
   17    -27.83414    2.00000
   18     -3.97593    2.00000
   19     -3.02498    2.00000
   20     -3.01503    2.00000
   21     -1.75994    0.00000
   22     -1.66664    0.00000
   23     -1.64294    0.00000
   24     -1.43540    0.00000
   25     -0.68743    0.00000
   26     -0.65355    0.00000
   27     -0.62020    0.00000
   28     -0.61220    0.00000
   29     -0.50691    0.00000

Fermi level: -2.38749

Gap: 1.255 eV
Transition (v -> c):
  (s=0, k=0, n=20, [0.00, 0.00, 0.00]) -> (s=0, k=0, n=21, [0.00, 0.00, 0.00])
No difference between direct/indirect transitions

Forces in eV/Ang:
  0 Na    0.00950   -0.01246    0.00081
  1 Na   -0.01340    0.01252    0.00305
  2 Na   -0.00231   -0.00131    0.00407
  3 Na   -0.00135   -0.00012   -0.01107
  4 Na   -0.00442    0.00288   -0.00277
  5 Na   -0.00015    0.00038   -0.00529

System changes: positions 

Initializing position-dependent things.

Density initialized from wave functions
           .--------------------------------------.  
          /|                                      |  
         / |                                      |  
        /  |                                      |  
       /   |                                      |  
      /    |                                      |  
     /     |                                      |  
    /      |                                      |  
   /       |                                      |  
  /        |                                      |  
 *         |           Na                         |  
 |         |                                      |  
 |         |                Na                    |  
 |         |                                      |  
 |         |            Na                        |  
 |         |                    Na                |  
 |         |                                      |  
 |         |                 Na                   |  
 |         |                                      |  
 |         |             Na                       |  
 |         .--------------------------------------.  
 |        /                                      /   
 |       /                                      /    
 |      /                                      /     
 |     /                                      /      
 |    /                                      /       
 |   /                                      /        
 |  /                                      /         
 | /                                      /          
 |/                                      /           
 *--------------------------------------*            

Positions:
   0 Na    11.495392    4.984405    9.693545    ( 0.0000,  0.0000,  0.0000)
   1 Na     9.110873    7.116347   10.756048    ( 0.0000,  0.0000,  0.0000)
   2 Na     6.649205    9.326221   11.583900    ( 0.0000,  0.0000,  0.0000)
   3 Na     7.653380    8.026281    5.013368    ( 0.0000,  0.0000,  0.0000)
   4 Na     9.643723    6.440734    7.259200    ( 0.0000,  0.0000,  0.0000)
   5 Na     7.023641    8.722393    8.279709    ( 0.0000,  0.0000,  0.0000)

Unit cell:
           periodic     x           y           z      points  spacing
  1. axis:    no    16.000000    0.000000    0.000000    80     0.2000
  2. axis:    no     0.000000   16.000000    0.000000    80     0.2000
  3. axis:    no     0.000000    0.000000   16.000000    80     0.2000

  Lengths:  16.000000  16.000000  16.000000
  Angles:   90.000000  90.000000  90.000000

Effective grid spacing dv^(1/3) = 0.2000

     iter     time        total  log10-change:
                         energy   eigst   dens
iter:   1 16:38:01    -4.989289   -2.97
iter:   2 16:38:02    -4.989154   -3.94  -3.01
iter:   3 16:38:04    -4.989136c  -4.57  -3.45
iter:   4 16:38:06    -4.989137c  -5.09  -3.80
iter:   5 16:38:08    -4.989137c  -5.49  -4.31c
iter:   6 16:38:09    -4.989137c  -5.99  -4.56c
iter:   7 16:38:11    -4.989138c  -6.24  -4.61c
iter:   8 16:38:13    -4.989138c  -6.70  -5.13c
iter:   9 16:38:14    -4.989138c  -6.90  -4.98c
iter:  10 16:38:16    -4.989138c  -7.14  -5.34c
iter:  11 16:38:18    -4.989138c  -7.59c -5.91c

Converged after 11 iterations.

Dipole moment: (0.046895, -0.024127, 0.056845) |e|*Ang

Energy contributions relative to reference atoms: (reference = -26511.662986)

Kinetic:         +4.855677
Potential:       -4.684829
External:        +0.000000
XC:              -4.976011
Entropy (-ST):   +0.000000
Local:           -0.183974
SIC:             +0.000000
--------------------------
Free energy:     -4.989138
Extrapolated:    -4.989138

 Band  Eigenvalues  Occupancy
    0    -27.99555    2.00000
    1    -27.99490    2.00000
    2    -27.98935    2.00000
    3    -27.98672    2.00000
    4    -27.98575    2.00000
    5    -27.97998    2.00000
    6    -27.97894    2.00000
    7    -27.97853    2.00000
    8    -27.97269    2.00000
    9    -27.89371    2.00000
   10    -27.88684    2.00000
   11    -27.88474    2.00000
   12    -27.88193    2.00000
   13    -27.88022    2.00000
   14    -27.87774    2.00000
   15    -27.84245    2.00000
   16    -27.84023    2.00000
   17    -27.83586    2.00000
   18     -3.97164    2.00000
   19     -3.02388    2.00000
   20     -3.01344    2.00000
   21     -1.76113    0.00000
   22     -1.66777    0.00000
   23     -1.64360    0.00000
   24     -1.43279    0.00000
   25     -0.68688    0.00000
   26     -0.65328    0.00000
   27     -0.62173    0.00000
   28     -0.61385    0.00000
   29     -0.50826    0.00000

Fermi level: -2.38728

Gap: 1.252 eV
Transition (v -> c):
  (s=0, k=0, n=20, [0.00, 0.00, 0.00]) -> (s=0, k=0, n=21, [0.00, 0.00, 0.00])
No difference between direct/indirect transitions

Forces in eV/Ang:
  0 Na    0.00623   -0.00858   -0.00046
  1 Na   -0.01458    0.01382    0.00152
  2 Na    0.00126   -0.00522   -0.00039
  3 Na   -0.00094   -0.00086   -0.00491
  4 Na   -0.00566    0.00424   -0.00117
  5 Na    0.00229   -0.00158   -0.00488

System changes: positions 

Initializing position-dependent things.

Density initialized from wave functions
           .--------------------------------------.  
          /|                                      |  
         / |                                      |  
        /  |                                      |  
       /   |                                      |  
      /    |                                      |  
     /     |                                      |  
    /      |                                      |  
   /       |                                      |  
  /        |                                      |  
 *         |           Na                         |  
 |         |                                      |  
 |         |                Na                    |  
 |         |                                      |  
 |         |            Na                        |  
 |         |                    Na                |  
 |         |                                      |  
 |         |                 Na                   |  
 |         |                                      |  
 |         |             Na                       |  
 |         .--------------------------------------.  
 |        /                                      /   
 |       /                                      /    
 |      /                                      /     
 |     /                                      /      
 |    /                                      /       
 |   /                                      /        
 |  /                                      /         
 | /                                      /          
 |/                                      /           
 *--------------------------------------*            

Positions:
   0 Na    11.496414    4.983452    9.693955    ( 0.0000,  0.0000,  0.0000)
   1 Na     9.110867    7.116345   10.756550    ( 0.0000,  0.0000,  0.0000)
   2 Na     6.648437    9.326940   11.584768    ( 0.0000,  0.0000,  0.0000)
   3 Na     7.653018    8.026456    5.011833    ( 0.0000,  0.0000,  0.0000)
   4 Na     9.643874    6.440514    7.258752    ( 0.0000,  0.0000,  0.0000)
   5 Na     7.023273    8.722776    8.279566    ( 0.0000,  0.0000,  0.0000)

Unit cell:
           periodic     x           y           z      points  spacing
  1. axis:    no    16.000000    0.000000    0.000000    80     0.2000
  2. axis:    no     0.000000   16.000000    0.000000    80     0.2000
  3. axis:    no     0.000000    0.000000   16.000000    80     0.2000

  Lengths:  16.000000  16.000000  16.000000
  Angles:   90.000000  90.000000  90.000000

Effective grid spacing dv^(1/3) = 0.2000

     iter     time        total  log10-change:
                         energy   eigst   dens
iter:   1 16:38:20    -4.989156   -4.37
iter:   2 16:38:21    -4.989151   -5.34  -3.72
iter:   3 16:38:23    -4.989150c  -5.96  -4.15c
iter:   4 16:38:25    -4.989150c  -6.49  -4.50c
iter:   5 16:38:26    -4.989150c  -6.89  -5.02c
iter:   6 16:38:28    -4.989150c  -7.37  -5.26c
iter:   7 16:38:30    -4.989150c  -7.63c -5.31c

Converged after 7 iterations.

Dipole moment: (0.046916, -0.024128, 0.056906) |e|*Ang

Energy contributions relative to reference atoms: (reference = -26511.662986)

Kinetic:         +4.840304
Potential:       -4.673855
External:        +0.000000
XC:              -4.971649
Entropy (-ST):   +0.000000
Local:           -0.183950
SIC:             +0.000000
--------------------------
Free energy:     -4.989150
Extrapolated:    -4.989150

 Band  Eigenvalues  Occupancy
    0    -27.99562    2.00000
    1    -27.99500    2.00000
    2    -27.98939    2.00000
    3    -27.98683    2.00000
    4    -27.98587    2.00000
    5    -27.98007    2.00000
    6    -27.97904    2.00000
    7    -27.97866    2.00000
    8    -27.97276    2.00000
    9    -27.89401    2.00000
   10    -27.88717    2.00000
   11    -27.88507    2.00000
   12    -27.88229    2.00000
   13    -27.88055    2.00000
   14    -27.87809    2.00000
   15    -27.84273    2.00000
   16    -27.84053    2.00000
   17    -27.83618    2.00000
   18     -3.97079    2.00000
   19     -3.02355    2.00000
   20     -3.01319    2.00000
   21     -1.76138    0.00000
   22     -1.66789    0.00000
   23     -1.64377    0.00000
   24     -1.43227    0.00000
   25     -0.68680    0.00000
   26     -0.65316    0.00000
   27     -0.62201    0.00000
   28     -0.61417    0.00000
   29     -0.50855    0.00000

Fermi level: -2.38729

Gap: 1.252 eV
Transition (v -> c):
  (s=0, k=0, n=20, [0.00, 0.00, 0.00]) -> (s=0, k=0, n=21, [0.00, 0.00, 0.00])
No difference between direct/indirect transitions

Forces in eV/Ang:
  0 Na    0.00537   -0.00751   -0.00070
  1 Na   -0.01449    0.01380    0.00115
  2 Na    0.00182   -0.00586   -0.00125
  3 Na   -0.00087   -0.00101   -0.00360
  4 Na   -0.00579    0.00442   -0.00077
  5 Na    0.00270   -0.00193   -0.00482

System changes: positions 

Initializing position-dependent things.

Density initialized from wave functions
           .--------------------------------------.  
          /|                                      |  
         / |                                      |  
        /  |                                      |  
       /   |                                      |  
      /    |                                      |  
     /     |                                      |  
    /      |                                      |  
   /       |                                      |  
  /        |                                      |  
 *         |           Na                         |  
 |         |                                      |  
 |         |                Na                    |  
 |         |                                      |  
 |         |            Na                        |  
 |         |                    Na                |  
 |         |                                      |  
 |         |                 Na                   |  
 |         |                                      |  
 |         |             Na                       |  
 |         .--------------------------------------.  
 |        /                                      /   
 |       /                                      /    
 |      /                                      /     
 |     /                                      /      
 |    /                                      /       
 |   /                                      /        
 |  /                                      /         
 | /                                      /          
 |/                                      /           
 *--------------------------------------*            

Positions:
   0 Na    11.498054    4.981824    9.694504    ( 0.0000,  0.0000,  0.0000)
   1 Na     9.110306    7.116868   10.757298    ( 0.0000,  0.0000,  0.0000)
   2 Na     6.647426    9.327729   11.585943    ( 0.0000,  0.0000,  0.0000)
   3 Na     7.652478    8.026663    5.009537    ( 0.0000,  0.0000,  0.0000)
   4 Na     9.643865    6.440374    7.258094    ( 0.0000,  0.0000,  0.0000)
   5 Na     7.022857    8.723241    8.279182    ( 0.0000,  0.0000,  0.0000)

Unit cell:
           periodic     x           y           z      points  spacing
  1. axis:    no    16.000000    0.000000    0.000000    80     0.2000
  2. axis:    no     0.000000   16.000000    0.000000    80     0.2000
  3. axis:    no     0.000000    0.000000   16.000000    80     0.2000

  Lengths:  16.000000  16.000000  16.000000
  Angles:   90.000000  90.000000  90.000000

Effective grid spacing dv^(1/3) = 0.2000

     iter     time        total  log10-change:
                         energy   eigst   dens
iter:   1 16:38:32    -4.989194   -4.02
iter:   2 16:38:33    -4.989182   -4.99  -3.54
iter:   3 16:38:35    -4.989180c  -5.59  -3.99
iter:   4 16:38:37    -4.989180c  -6.11  -4.29c
iter:   5 16:38:39    -4.989180c  -6.48  -4.73c
iter:   6 16:38:40    -4.989180c  -6.94  -5.01c
iter:   7 16:38:42    -4.989180c  -7.31  -5.18c
iter:   8 16:38:44    -4.989180c  -7.65c -5.53c

Converged after 8 iterations.

Dipole moment: (0.046694, -0.023941, 0.056946) |e|*Ang

Energy contributions relative to reference atoms: (reference = -26511.662986)

Kinetic:         +4.810215
Potential:       -4.650922
External:        +0.000000
XC:              -4.964523
Entropy (-ST):   +0.000000
Local:           -0.183950
SIC:             +0.000000
--------------------------
Free energy:     -4.989180
Extrapolated:    -4.989180

 Band  Eigenvalues  Occupancy
    0    -27.99582    2.00000
    1    -27.99526    2.00000
    2    -27.98954    2.00000
    3    -27.98722    2.00000
    4    -27.98630    2.00000
    5    -27.98045    2.00000
    6    -27.97946    2.00000
    7    -27.97911    2.00000
    8    -27.97315    2.00000
    9    -27.89443    2.00000
   10    -27.88758    2.00000
   11    -27.88550    2.00000
   12    -27.88293    2.00000
   13    -27.88097    2.00000
   14    -27.87867    2.00000
   15    -27.84308    2.00000
   16    -27.84096    2.00000
   17    -27.83669    2.00000
   18     -3.96963    2.00000
   19     -3.02285    2.00000
   20     -3.01305    2.00000
   21     -1.76183    0.00000
   22     -1.66784    0.00000
   23     -1.64412    0.00000
   24     -1.43156    0.00000
   25     -0.68679    0.00000
   26     -0.65287    0.00000
   27     -0.62235    0.00000
   28     -0.61463    0.00000
   29     -0.50901    0.00000

Fermi level: -2.38744

Gap: 1.251 eV
Transition (v -> c):
  (s=0, k=0, n=20, [0.00, 0.00, 0.00]) -> (s=0, k=0, n=21, [0.00, 0.00, 0.00])
No difference between direct/indirect transitions

Forces in eV/Ang:
  0 Na    0.00370   -0.00543   -0.00105
  1 Na   -0.01361    0.01309    0.00032
  2 Na    0.00223   -0.00639   -0.00235
  3 Na   -0.00086   -0.00117   -0.00182
  4 Na   -0.00571    0.00446    0.00009
  5 Na    0.00311   -0.00231   -0.00473

System changes: positions 

Initializing position-dependent things.

Density initialized from wave functions
           .--------------------------------------.  
          /|                                      |  
         / |                                      |  
        /  |                                      |  
       /   |                                      |  
      /    |                                      |  
     /     |                                      |  
    /      |                                      |  
   /       |                                      |  
  /        |                                      |  
 *         |           Na                         |  
 |         |                                      |  
 |         |                Na                    |  
 |         |                                      |  
 |         |            Na                        |  
 |         |                    Na                |  
 |         |                                      |  
 |         |                 Na                   |  
 |         |                                      |  
 |         |             Na                       |  
 |         .--------------------------------------.  
 |        /                                      /   
 |       /                                      /    
 |      /                                      /     
 |     /                                      /      
 |    /                                      /       
 |   /                                      /        
 |  /                                      /         
 | /                                      /          
 |/                                      /           
 *--------------------------------------*            

Positions:
   0 Na    11.500483    4.979204    9.695083    ( 0.0000,  0.0000,  0.0000)
   1 Na     9.108296    7.118771   10.758278    ( 0.0000,  0.0000,  0.0000)
   2 Na     6.646391    9.328120   11.587222    ( 0.0000,  0.0000,  0.0000)
   3 Na     7.651762    8.026814    5.006480    ( 0.0000,  0.0000,  0.0000)
   4 Na     9.643316    6.440620    7.257255    ( 0.0000,  0.0000,  0.0000)
   5 Na     7.022611    8.723612    8.278271    ( 0.0000,  0.0000,  0.0000)

Unit cell:
           periodic     x           y           z      points  spacing
  1. axis:    no    16.000000    0.000000    0.000000    80     0.2000
  2. axis:    no     0.000000   16.000000    0.000000    80     0.2000
  3. axis:    no     0.000000    0.000000   16.000000    80     0.2000

  Lengths:  16.000000  16.000000  16.000000
  Angles:   90.000000  90.000000  90.000000

Effective grid spacing dv^(1/3) = 0.2000

     iter     time        total  log10-change:
                         energy   eigst   dens
iter:   1 16:38:46    -4.989279   -3.65
iter:   2 16:38:48    -4.989243   -4.62  -3.35
iter:   3 16:38:49    -4.989240c  -5.19  -3.82
iter:   4 16:38:51    -4.989240c  -5.58  -4.04c
iter:   5 16:38:53    -4.989241c  -5.97  -4.46c
iter:   6 16:38:55    -4.989241c  -6.41  -4.67c
iter:   7 16:38:56    -4.989241c  -6.79  -5.00c
iter:   8 16:38:58    -4.989241c  -7.09  -5.23c
iter:   9 16:39:00    -4.989241c  -7.36  -5.43c
iter:  10 16:39:01    -4.989241c  -7.64c -5.65c

Converged after 10 iterations.

Dipole moment: (0.045800, -0.023225, 0.056884) |e|*Ang

Energy contributions relative to reference atoms: (reference = -26511.662986)

Kinetic:         +4.775449
Potential:       -4.624418
External:        +0.000000
XC:              -4.956304
Entropy (-ST):   +0.000000
Local:           -0.183967
SIC:             +0.000000
--------------------------
Free energy:     -4.989241
Extrapolated:    -4.989241

 Band  Eigenvalues  Occupancy
    0    -27.99573    2.00000
    1    -27.99527    2.00000
    2    -27.98938    2.00000
    3    -27.98782    2.00000
    4    -27.98694    2.00000
    5    -27.98108    2.00000
    6    -27.98015    2.00000
    7    -27.97984    2.00000
    8    -27.97380    2.00000
    9    -27.89480    2.00000
   10    -27.88778    2.00000
   11    -27.88578    2.00000
   12    -27.88383    2.00000
   13    -27.88124    2.00000
   14    -27.87941    2.00000
   15    -27.84319    2.00000
   16    -27.84139    2.00000
   17    -27.83727    2.00000
   18     -3.96832    2.00000
   19     -3.02140    2.00000
   20     -3.01333    2.00000
   21     -1.76254    0.00000
   22     -1.66720    0.00000
   23     -1.64478    0.00000
   24     -1.43075    0.00000
   25     -0.68700    0.00000
   26     -0.65219    0.00000
   27     -0.62261    0.00000
   28     -0.61517    0.00000
   29     -0.50966    0.00000

Fermi level: -2.38794

Gap: 1.251 eV
Transition (v -> c):
  (s=0, k=0, n=20, [0.00, 0.00, 0.00]) -> (s=0, k=0, n=21, [0.00, 0.00, 0.00])
No difference between direct/indirect transitions

Forces in eV/Ang:
  0 Na    0.00042   -0.00163   -0.00151
  1 Na   -0.01065    0.01060   -0.00121
  2 Na    0.00186   -0.00624   -0.00349
  3 Na   -0.00109   -0.00123    0.00028
  4 Na   -0.00491    0.00396    0.00177
  5 Na    0.00315   -0.00248   -0.00477

System changes: positions 

Initializing position-dependent things.

Density initialized from wave functions
           .--------------------------------------.  
          /|                                      |  
         / |                                      |  
        /  |                                      |  
       /   |                                      |  
      /    |                                      |  
     /     |                                      |  
    /      |                                      |  
   /       |                                      |  
  /        |                                      |  
 *         |           Na                         |  
 |         |                                      |  
 |         |                Na                    |  
 |         |                                      |  
 |         |            Na                        |  
 |         |                    Na                |  
 |         |                                      |  
 |         |                 Na                   |  
 |         |                                      |  
 |         |             Na                       |  
 |         .--------------------------------------.  
 |        /                                      /   
 |       /                                      /    
 |      /                                      /     
 |     /                                      /      
 |    /                                      /       
 |   /                                      /        
 |  /                                      /         
 | /                                      /          
 |/                                      /           
 *--------------------------------------*            

Positions:
   0 Na    11.502275    4.976887    9.695091    ( 0.0000,  0.0000,  0.0000)
   1 Na     9.104683    7.122215   10.758768    ( 0.0000,  0.0000,  0.0000)
   2 Na     6.646427    9.327020   11.587348    ( 0.0000,  0.0000,  0.0000)
   3 Na     7.651366    8.026647    5.004801    ( 0.0000,  0.0000,  0.0000)
   4 Na     9.641944    6.441617    7.256888    ( 0.0000,  0.0000,  0.0000)
   5 Na     7.023090    8.723321    8.276956    ( 0.0000,  0.0000,  0.0000)

Unit cell:
           periodic     x           y           z      points  spacing
  1. axis:    no    16.000000    0.000000    0.000000    80     0.2000
  2. axis:    no     0.000000   16.000000    0.000000    80     0.2000
  3. axis:    no     0.000000    0.000000   16.000000    80     0.2000

  Lengths:  16.000000  16.000000  16.000000
  Angles:   90.000000  90.000000  90.000000

Effective grid spacing dv^(1/3) = 0.2000

     iter     time        total  log10-change:
                         energy   eigst   dens
iter:   1 16:39:03    -4.989378   -3.52
iter:   2 16:39:05    -4.989318   -4.48  -3.29
iter:   3 16:39:07    -4.989315c  -5.02  -3.79
iter:   4 16:39:08    -4.989315c  -5.30  -3.92
iter:   5 16:39:10    -4.989316c  -5.73  -4.40c
iter:   6 16:39:12    -4.989316c  -6.12  -4.49c
iter:   7 16:39:14    -4.989316c  -6.45  -4.91c
iter:   8 16:39:15    -4.989316c  -6.71  -5.10c
iter:   9 16:39:17    -4.989316c  -7.07  -5.58c
iter:  10 16:39:19    -4.989316c  -7.37  -5.52c
iter:  11 16:39:20    -4.989316c  -7.60c -5.58c

Converged after 11 iterations.

Dipole moment: (0.044172, -0.021948, 0.056603) |e|*Ang

Energy contributions relative to reference atoms: (reference = -26511.662986)

Kinetic:         +4.765002
Potential:       -4.616182
External:        +0.000000
XC:              -4.954150
Entropy (-ST):   +0.000000
Local:           -0.183986
SIC:             +0.000000
--------------------------
Free energy:     -4.989316
Extrapolated:    -4.989316

 Band  Eigenvalues  Occupancy
    0    -27.99516    2.00000
    1    -27.99479    2.00000
    2    -27.98891    2.00000
    3    -27.98815    2.00000
    4    -27.98746    2.00000
    5    -27.98168    2.00000
    6    -27.98077    2.00000
    7    -27.98047    2.00000
    8    -27.97441    2.00000
    9    -27.89466    2.00000
   10    -27.88727    2.00000
   11    -27.88538    2.00000
   12    -27.88443    2.00000
   13    -27.88081    2.00000
   14    -27.87977    2.00000
   15    -27.84260    2.00000
   16    -27.84145    2.00000
   17    -27.83733    2.00000
   18     -3.96807    2.00000
   19     -3.01963    2.00000
   20     -3.01441    2.00000
   21     -1.76317    0.00000
   22     -1.66574    0.00000
   23     -1.64553    0.00000
   24     -1.43058    0.00000
   25     -0.68756    0.00000
   26     -0.65125    0.00000
   27     -0.62240    0.00000
   28     -0.61535    0.00000
   29     -0.51012    0.00000

Fermi level: -2.38879

Gap: 1.251 eV
Transition (v -> c):
  (s=0, k=0, n=20, [0.00, 0.00, 0.00]) -> (s=0, k=0, n=21, [0.00, 0.00, 0.00])
No difference between direct/indirect transitions

Forces in eV/Ang:
  0 Na   -0.00334    0.00234   -0.00175
  1 Na   -0.00552    0.00616   -0.00284
  2 Na   -0.00020   -0.00446   -0.00332
  3 Na   -0.00164   -0.00097    0.00066
  4 Na   -0.00319    0.00265    0.00368
  5 Na    0.00216   -0.00193   -0.00496

Timing:                                      incl.     excl.
-------------------------------------------------------------------
Density initialized from wave functions:     0.132     0.132   0.0% |
 Symmetrize density:                         0.000     0.000   0.0% |
Forces:                                      1.379     1.379   0.3% |
Hamiltonian:                                 4.266     0.000   0.0% |
 Atomic:                                     0.412     0.002   0.0% |
  XC Correction:                             0.410     0.410   0.1% |
 Calculate atomic Hamiltonians:              0.028     0.028   0.0% |
 Communicate:                                0.000     0.000   0.0% |
 Hartree integrate/restrict:                 0.083     0.083   0.0% |
 Initialize Hamiltonian:                     0.000     0.000   0.0% |
 Poisson:                                    1.191     0.049   0.0% |
  Communicate from 1D:                       0.144     0.144   0.0% |
  Communicate from 2D:                       0.142     0.142   0.0% |
  Communicate to 1D:                         0.143     0.143   0.0% |
  Communicate to 2D:                         0.141     0.141   0.0% |
  FFT 1D:                                    0.161     0.161   0.0% |
  FFT 2D:                                    0.412     0.412   0.1% |
 XC 3D grid:                                 2.535     2.535   0.5% |
 vbar:                                       0.016     0.016   0.0% |
LCAO initialization:                         0.097     0.008   0.0% |
 LCAO eigensolver:                           0.021     0.000   0.0% |
  Calculate projections:                     0.000     0.000   0.0% |
  DenseAtomicCorrection:                     0.000     0.000   0.0% |
  Distribute overlap matrix:                 0.000     0.000   0.0% |
  Orbital Layouts:                           0.000     0.000   0.0% |
  Potential matrix:                          0.020     0.020   0.0% |
 LCAO to grid:                               0.064     0.064   0.0% |
 Set positions (LCAO WFS):                   0.005     0.001   0.0% |
  Basic WFS set positions:                   0.000     0.000   0.0% |
  Basis functions set positions:             0.000     0.000   0.0% |
  P tci:                                     0.002     0.002   0.0% |
  ST tci:                                    0.001     0.001   0.0% |
  mktci:                                     0.000     0.000   0.0% |
Redistribute:                                0.001     0.001   0.0% |
SCF-cycle:                                 155.307     0.041   0.0% |
 Davidson:                                 107.623    38.952   7.8% |--|
  Apply hamiltonian:                        11.087    11.087   2.2% ||
  Subspace diag:                            15.750     0.003   0.0% |
   calc_h_matrix:                           12.904     1.703   0.3% |
    Apply hamiltonian:                      11.201    11.201   2.2% ||
   diagonalize:                              0.013     0.013   0.0% |
   rotate_psi:                               2.830     2.830   0.6% |
  calc. matrices:                           36.685    14.445   2.9% ||
   Apply hamiltonian:                       22.241    22.241   4.4% |-|
  diagonalize:                               0.104     0.104   0.0% |
  rotate_psi:                                5.045     5.045   1.0% |
 Density:                                    1.706     0.000   0.0% |
  Atomic density matrices:                   0.018     0.018   0.0% |
  Mix:                                       1.388     1.388   0.3% |
  Multipole moments:                         0.004     0.004   0.0% |
  Pseudo density:                            0.295     0.295   0.1% |
   Symmetrize density:                       0.000     0.000   0.0% |
 Hamiltonian:                               45.594     0.002   0.0% |
  Atomic:                                    4.402     0.020   0.0% |
   XC Correction:                            4.381     4.381   0.9% |
  Calculate atomic Hamiltonians:             0.304     0.304   0.1% |
  Communicate:                               0.000     0.000   0.0% |
  Hartree integrate/restrict:                0.862     0.862   0.2% |
  Poisson:                                  12.577     0.474   0.1% |
   Communicate from 1D:                      1.495     1.495   0.3% |
   Communicate from 2D:                      1.512     1.512   0.3% |
   Communicate to 1D:                        1.514     1.514   0.3% |
   Communicate to 2D:                        1.504     1.504   0.3% |
   FFT 1D:                                   1.719     1.719   0.3% |
   FFT 2D:                                   4.359     4.359   0.9% |
  XC 3D grid:                               27.279    27.279   5.5% |-|
  vbar:                                      0.169     0.169   0.0% |
 Orthonormalize:                             0.343     0.000   0.0% |
  calc_s_matrix:                             0.106     0.106   0.0% |
  inverse-cholesky:                          0.001     0.001   0.0% |
  projections:                               0.107     0.107   0.0% |
  rotate_psi_s:                              0.130     0.130   0.0% |
Set symmetry:                                0.000     0.000   0.0% |
Other:                                     339.171   339.171  67.8% |--------------------------|
-------------------------------------------------------------------
Total:                                               500.353 100.0%

Memory usage: 1.94 GiB
Date: Sun Feb 16 16:44:58 2025
