6
Lattice="16.0 0.0 0.0 0.0 16.0 0.0 0.0 0.0 16.0" Properties=species:S:1:pos:R:3:magmoms:R:1:forces:R:3 energy=-3.7871578410556817 free_energy=-3.7871578410556817 dipole="0.003968053512474783 0.0006881017968990522 0.0017865311337365473" magmom=0.0 pbc="F F F"
Na      11.56385563       4.92670075       9.71033284       0.00000000      -0.00049272       0.00148184      -0.00189031
Na       9.10966929       7.12115715      10.79332391       0.00000000      -0.00095351       0.00129592      -0.00619090
Na       6.60682363       9.36295096      11.65150444       0.00000000       0.00075160      -0.00290058       0.00048211
Na       7.62980706       8.03827800       4.92656429       0.00000000      -0.00044730      -0.00234352       0.00475521
Na       9.65647726       6.42663880       7.23429141       0.00000000      -0.00510243       0.00373891       0.00320997
Na       7.00463722       8.74390267       8.26578819       0.00000000       0.00721412      -0.00160709       0.00149327
