6
Lattice="16.0 0.0 0.0 0.0 16.0 0.0 0.0 0.0 16.0" Properties=species:S:1:pos:R:3:magmoms:R:1:forces:R:3 energy=-5.035729684463858 free_energy=-5.035729684463858 dipole="-0.09041717733729221 -0.09888478705030439 -0.03154654826539029" magmom=0.0 pbc="F F F"
Na       8.27224860       9.61160535       8.69137125       0.00000000       0.00363148       0.00659924       0.00385968
Na       6.38573744       8.07407331      11.00423990       0.00000000      -0.00440357       0.00068907       0.00147752
Na       4.95953068       9.96433122       8.30950607       0.00000000      -0.00395586       0.00235827      -0.00186762
Na       7.19119987       9.80154859       5.51338160       0.00000000       0.00179615      -0.00092570      -0.00400980
Na      10.02529138       7.80178359       6.48125788       0.00000000       0.00412561      -0.00447368      -0.00331410
Na       9.50190544       6.70734222       9.85664899       0.00000000       0.00142844      -0.00112073       0.00696789
