
  ___ ___ ___ _ _ _  
 |   |   |_  | | | | 
 | | | | | . | | | | 
 |__ |  _|___|_____|  25.1.0
 |___|_|             

User:   zoe@dhcp-140-47.vpn.chalmers.se
Date:   Sun Feb 16 16:39:21 2025
Arch:   arm64
Pid:    57063
CWD:    /Users/zoe/Documents/GitHub/TIF320_Computitional_Metrials_and_Molecular_Physics
Python: 3.12.2
gpaw:   /opt/anaconda3/envs/tif320env/lib/python3.12/site-packages/gpaw
_gpaw:  /opt/anaconda3/envs/tif320env/lib/python3.12/site-packages/
        _gpaw.cpython-312-darwin.so
ase:    /opt/anaconda3/envs/tif320env/lib/python3.12/site-packages/ase (version 3.24.0)
numpy:  /opt/anaconda3/envs/tif320env/lib/python3.12/site-packages/numpy (version 2.0.1)
scipy:  /opt/anaconda3/envs/tif320env/lib/python3.12/site-packages/scipy (version 1.15.1)
libxc:  7.0.0
units:  Angstrom and eV
cores: 1
OpenMP: False
OMP_NUM_THREADS: 1

Input parameters:
  mode: fd
  xc: PBE

System changes: positions, numbers, cell, pbc, initial_charges, initial_magmoms 

Initialize ...

species:
  Na:
    name: Sodium
    id: d7ecbc49209718622bcbe287195dca2a
    Z: 11.0
    valence: 7
    core: 4
    charge: 0.0
    file: /opt/anaconda3/envs/tif320env/gpaw-setups/gpaw-setups-24.11.0/Na.PBE.gz
    compensation charges: {type: gauss,
                           rc: 0.37,
                           lmax: 2}
    cutoffs: {filter: 2.17,
              core: 2.59}
    projectors:
      #              energy  rcut
      - 3s(1.00)    -2.744   1.201
      - 2p(6.00)   -28.672   1.217
      - 3p(0.00)    -0.743   1.217
      -  s          24.468   1.201
      -  d           0.000   1.238
  
    # Using partial waves for Na as LCAO basis

Reference energy: -26511.662986  # eV

Spin-paired calculation

Convergence criteria:
 Maximum [total energy] change in last 3 cyles: 0.0005 eV / valence electron
 Maximum integral of absolute [dens]ity change: 0.0001 electrons / valence electron
 Maximum integral of absolute [eigenst]ate change: 4e-08 eV^2 / valence electron
 Maximum number of scf [iter]ations: 333
 (Square brackets indicate name in SCF output, whereas a 'c' in
 the SCF output indicates the quantity has converged.)

Symmetries present (total): 1

  ( 1  0  0)
  ( 0  1  0)
  ( 0  0  1)

1 k-point (Gamma)
1 k-point in the irreducible part of the Brillouin zone
       k-points in crystal coordinates                weights
   0:     0.00000000    0.00000000    0.00000000          1/1

Wave functions: Uniform real-space grid
  Kinetic energy operator: 6*3+1=19 point O(h^6) finite-difference Laplacian
  ScaLapack parameters: grid=1x1, blocksize=None
  Wavefunction extrapolation:
    Improved wavefunction reuse through dual PAW basis 

Occupation numbers: # Zero width 

Eigensolver
   Davidson(niter=2) 

Densities:
  Coarse grid: 80*80*80 grid
  Fine grid: 160*160*160 grid
  Total Charge: 0.000000 

Density mixing:
  Method: separate
  Backend: pulay
  Linear mixing parameter: 0.25
  old densities: 3
  Damping of long wavelength oscillations: 1  # (no daming) 

Hamiltonian:
  XC and Coulomb potentials evaluated on a 160*160*160 grid
  Using the PBE Exchange-Correlation functional
  Interpolation: tri-quintic (5. degree polynomial)
  Poisson solver: FastPoissonSolver using
    Stencil: 6*3+1=19 point O(h^6) finite-difference Laplacian
    FFT axes: []
    FST axes: [np.int64(0), np.int64(1), np.int64(2)]
 

XC parameters: PBE with 2 nearest neighbor stencil

Memory estimate:
  Process memory now: 1525.16 MiB
  Calculator: 463.55 MiB
    Density: 148.73 MiB
      Arrays: 99.53 MiB
      Localized functions: 26.63 MiB
      Mixer: 22.57 MiB
    Hamiltonian: 67.06 MiB
      Arrays: 65.10 MiB
      XC: 0.00 MiB
      Poisson: 0.00 MiB
      vbar: 1.96 MiB
    Wavefunctions: 247.77 MiB
      Arrays psit_nG: 112.85 MiB
      Eigensolver: 131.73 MiB
      Projections: 0.02 MiB
      Projectors: 3.18 MiB

Total number of cores used: 1

Number of atoms: 6
Number of atomic orbitals: 42
Number of bands in calculation: 30
Number of valence electrons: 42
Bands to converge: occupied

... initialized

Initializing position-dependent things.

Density initialized from atomic densities
Creating initial wave functions:
  30 bands from LCAO basis set

           .--------------------------------------.  
          /|                                      |  
         / |                                      |  
        /  |                                      |  
       /   |                                      |  
      /    |                                      |  
     /     |                                      |  
    /      |                                      |  
   /       |                                      |  
  /        |                                      |  
 *         |                                      |  
 |         |          Na                          |  
 |         |                                      |  
 |         |       Na      Na                     |  
 |         |                Na                    |  
 |         |                                      |  
 |         |                                      |  
 |         |             Na   Na                  |  
 |         |                                      |  
 |         |                                      |  
 |         .--------------------------------------.  
 |        /                                      /   
 |       /                                      /    
 |      /                                      /     
 |     /                                      /      
 |    /                                      /       
 |   /                                      /        
 |  /                                      /         
 | /                                      /          
 |/                                      /           
 *--------------------------------------*            

Positions:
   0 Na     8.210231    9.489933    8.656516    ( 0.0000,  0.0000,  0.0000)
   1 Na     6.417931    8.101846   10.968460    ( 0.0000,  0.0000,  0.0000)
   2 Na     5.009862    9.947279    8.321395    ( 0.0000,  0.0000,  0.0000)
   3 Na     7.211492    9.790525    5.577356    ( 0.0000,  0.0000,  0.0000)
   4 Na     9.992557    7.848605    6.505352    ( 0.0000,  0.0000,  0.0000)
   5 Na     9.477264    6.754058    9.822530    ( 0.0000,  0.0000,  0.0000)

Unit cell:
           periodic     x           y           z      points  spacing
  1. axis:    no    16.000000    0.000000    0.000000    80     0.2000
  2. axis:    no     0.000000   16.000000    0.000000    80     0.2000
  3. axis:    no     0.000000    0.000000   16.000000    80     0.2000

  Lengths:  16.000000  16.000000  16.000000
  Angles:   90.000000  90.000000  90.000000

Effective grid spacing dv^(1/3) = 0.2000

     iter     time        total  log10-change:
                         energy   eigst   dens
iter:   1 16:39:23    -5.078585
iter:   2 16:39:25    -4.960409   -0.50  -1.31
iter:   3 16:39:27    -4.975229   -0.46  -1.51
iter:   4 16:39:29    -4.995447   -0.88  -1.91
iter:   5 16:39:30    -5.004445   -1.23  -2.28
iter:   6 16:39:32    -5.007448c  -1.61  -2.51
iter:   7 16:39:34    -5.008673c  -2.00  -2.60
iter:   8 16:39:36    -5.009423c  -2.32  -2.99
iter:   9 16:39:37    -5.009879c  -2.60  -3.06
iter:  10 16:39:39    -5.010097c  -2.87  -3.36
iter:  11 16:39:41    -5.010216c  -3.13  -3.55
iter:  12 16:39:43    -5.010275c  -3.43  -3.93
iter:  13 16:39:44    -5.010307c  -3.71  -3.97
iter:  14 16:39:46    -5.010325c  -3.93  -3.90
iter:  15 16:39:48    -5.010335c  -4.23  -3.55
iter:  16 16:39:49    -5.010340c  -4.53  -3.68
iter:  17 16:39:51    -5.010341c  -4.89  -3.76
iter:  18 16:39:53    -5.010343c  -5.06  -4.11c
iter:  19 16:39:54    -5.010343c  -5.36  -4.10c
iter:  20 16:39:56    -5.010344c  -5.65  -4.57c
iter:  21 16:39:58    -5.010344c  -5.84  -4.71c
iter:  22 16:40:00    -5.010344c  -6.11  -5.09c
iter:  23 16:40:01    -5.010344c  -6.35  -5.30c
iter:  24 16:40:03    -5.010344c  -6.60  -5.36c
iter:  25 16:40:05    -5.010344c  -6.86  -5.55c
iter:  26 16:40:07    -5.010344c  -7.14  -5.69c
iter:  27 16:40:08    -5.010344c  -7.37  -6.19c
iter:  28 16:40:10    -5.010344c  -7.61c -5.89c

Converged after 28 iterations.

Dipole moment: (-0.090846, -0.109443, -0.032324) |e|*Ang

Energy contributions relative to reference atoms: (reference = -26511.662986)

Kinetic:         +6.690330
Potential:       -5.935991
External:        +0.000000
XC:              -5.580206
Entropy (-ST):   +0.000000
Local:           -0.184477
SIC:             +0.000000
--------------------------
Free energy:     -5.010344
Extrapolated:    -5.010344

 Band  Eigenvalues  Occupancy
    0    -27.93420    2.00000
    1    -27.93205    2.00000
    2    -27.93037    2.00000
    3    -27.92553    2.00000
    4    -27.92275    2.00000
    5    -27.92220    2.00000
    6    -27.92130    2.00000
    7    -27.91888    2.00000
    8    -27.91835    2.00000
    9    -27.91642    2.00000
   10    -27.90794    2.00000
   11    -27.90632    2.00000
   12    -27.89582    2.00000
   13    -27.89418    2.00000
   14    -27.88807    2.00000
   15    -27.84450    2.00000
   16    -27.81466    2.00000
   17    -27.81453    2.00000
   18     -4.16462    2.00000
   19     -2.99771    2.00000
   20     -2.99050    2.00000
   21     -1.83270    0.00000
   22     -1.67967    0.00000
   23     -1.66615    0.00000
   24     -1.37960    0.00000
   25     -0.80073    0.00000
   26     -0.79029    0.00000
   27     -0.39046    0.00000
   28     -0.37131    0.00000
   29     -0.30976    0.00000

Fermi level: -2.41160

Gap: 1.158 eV
Transition (v -> c):
  (s=0, k=0, n=20, [0.00, 0.00, 0.00]) -> (s=0, k=0, n=21, [0.00, 0.00, 0.00])
No difference between direct/indirect transitions

Forces in eV/Ang:
  0 Na    0.05779    0.12344    0.03957
  1 Na   -0.05174   -0.04072    0.07797
  2 Na   -0.09352    0.02448   -0.01092
  3 Na   -0.03199    0.02531   -0.08321
  4 Na    0.06757   -0.04950   -0.06644
  5 Na    0.05324   -0.08194    0.04178

System changes: positions 

Initializing position-dependent things.

Density initialized from wave functions
           .--------------------------------------.  
          /|                                      |  
         / |                                      |  
        /  |                                      |  
       /   |                                      |  
      /    |                                      |  
     /     |                                      |  
    /      |                                      |  
   /       |                                      |  
  /        |                                      |  
 *         |                                      |  
 |         |          Na                          |  
 |         |                                      |  
 |         |       Na      Na                     |  
 |         |                Na                    |  
 |         |                                      |  
 |         |                                      |  
 |         |             Na   Na                  |  
 |         |                                      |  
 |         |                                      |  
 |         .--------------------------------------.  
 |        /                                      /   
 |       /                                      /    
 |      /                                      /     
 |     /                                      /      
 |    /                                      /       
 |   /                                      /        
 |  /                                      /         
 | /                                      /          
 |/                                      /           
 *--------------------------------------*            

Positions:
   0 Na     8.211056    9.491696    8.657081    ( 0.0000,  0.0000,  0.0000)
   1 Na     6.417191    8.101264   10.969573    ( 0.0000,  0.0000,  0.0000)
   2 Na     5.008526    9.947629    8.321239    ( 0.0000,  0.0000,  0.0000)
   3 Na     7.211035    9.790887    5.576167    ( 0.0000,  0.0000,  0.0000)
   4 Na     9.993523    7.847898    6.504403    ( 0.0000,  0.0000,  0.0000)
   5 Na     9.478024    6.752887    9.823127    ( 0.0000,  0.0000,  0.0000)

Unit cell:
           periodic     x           y           z      points  spacing
  1. axis:    no    16.000000    0.000000    0.000000    80     0.2000
  2. axis:    no     0.000000   16.000000    0.000000    80     0.2000
  3. axis:    no     0.000000    0.000000   16.000000    80     0.2000

  Lengths:  16.000000  16.000000  16.000000
  Angles:   90.000000  90.000000  90.000000

Effective grid spacing dv^(1/3) = 0.2000

     iter     time        total  log10-change:
                         energy   eigst   dens
iter:   1 16:40:12    -5.011354   -4.01
iter:   2 16:40:14    -5.011353   -4.91  -3.75
iter:   3 16:40:15    -5.011351c  -5.52  -3.97
iter:   4 16:40:17    -5.011351c  -6.09  -4.45c
iter:   5 16:40:19    -5.011352c  -6.41  -4.65c
iter:   6 16:40:21    -5.011352c  -6.78  -5.02c
iter:   7 16:40:22    -5.011352c  -7.21  -5.26c
iter:   8 16:40:24    -5.011352c  -7.48c -5.35c

Converged after 8 iterations.

Dipole moment: (-0.090909, -0.109374, -0.032295) |e|*Ang

Energy contributions relative to reference atoms: (reference = -26511.662986)

Kinetic:         +6.650325
Potential:       -5.906741
External:        +0.000000
XC:              -5.570473
Entropy (-ST):   +0.000000
Local:           -0.184462
SIC:             +0.000000
--------------------------
Free energy:     -5.011352
Extrapolated:    -5.011352

 Band  Eigenvalues  Occupancy
    0    -27.93449    2.00000
    1    -27.93237    2.00000
    2    -27.93069    2.00000
    3    -27.92595    2.00000
    4    -27.92322    2.00000
    5    -27.92267    2.00000
    6    -27.92176    2.00000
    7    -27.91930    2.00000
    8    -27.91878    2.00000
    9    -27.91683    2.00000
   10    -27.90836    2.00000
   11    -27.90674    2.00000
   12    -27.89629    2.00000
   13    -27.89467    2.00000
   14    -27.88857    2.00000
   15    -27.84544    2.00000
   16    -27.81556    2.00000
   17    -27.81545    2.00000
   18     -4.16323    2.00000
   19     -2.99730    2.00000
   20     -2.99019    2.00000
   21     -1.83304    0.00000
   22     -1.68016    0.00000
   23     -1.66657    0.00000
   24     -1.37906    0.00000
   25     -0.80115    0.00000
   26     -0.79087    0.00000
   27     -0.39137    0.00000
   28     -0.37289    0.00000
   29     -0.31023    0.00000

Fermi level: -2.41161

Gap: 1.157 eV
Transition (v -> c):
  (s=0, k=0, n=20, [0.00, 0.00, 0.00]) -> (s=0, k=0, n=21, [0.00, 0.00, 0.00])
No difference between direct/indirect transitions

Forces in eV/Ang:
  0 Na    0.05684    0.12078    0.03881
  1 Na   -0.05041   -0.03981    0.07583
  2 Na   -0.09143    0.02396   -0.01069
  3 Na   -0.03106    0.02456   -0.08098
  4 Na    0.06591   -0.04857   -0.06477
  5 Na    0.05192   -0.08007    0.04075

System changes: positions 

Initializing position-dependent things.

Density initialized from wave functions
           .--------------------------------------.  
          /|                                      |  
         / |                                      |  
        /  |                                      |  
       /   |                                      |  
      /    |                                      |  
     /     |                                      |  
    /      |                                      |  
   /       |                                      |  
  /        |                                      |  
 *         |                                      |  
 |         |          Na                          |  
 |         |                                      |  
 |         |       Na      NNa                    |  
 |         |                                      |  
 |         |                                      |  
 |         |                                      |  
 |         |             Na   Na                  |  
 |         |                                      |  
 |         |                                      |  
 |         .--------------------------------------.  
 |        /                                      /   
 |       /                                      /    
 |      /                                      /     
 |     /                                      /      
 |    /                                      /       
 |   /                                      /        
 |  /                                      /         
 | /                                      /          
 |/                                      /           
 *--------------------------------------*            

Positions:
   0 Na     8.245834    9.565598    8.680827    ( 0.0000,  0.0000,  0.0000)
   1 Na     6.386347    8.076908   11.015972    ( 0.0000,  0.0000,  0.0000)
   2 Na     4.952584    9.962288    8.314700    ( 0.0000,  0.0000,  0.0000)
   3 Na     7.192030    9.805911    5.526618    ( 0.0000,  0.0000,  0.0000)
   4 Na    10.033849    7.818178    6.464771    ( 0.0000,  0.0000,  0.0000)
   5 Na     9.509793    6.703897    9.848062    ( 0.0000,  0.0000,  0.0000)

Unit cell:
           periodic     x           y           z      points  spacing
  1. axis:    no    16.000000    0.000000    0.000000    80     0.2000
  2. axis:    no     0.000000   16.000000    0.000000    80     0.2000
  3. axis:    no     0.000000    0.000000   16.000000    80     0.2000

  Lengths:  16.000000  16.000000  16.000000
  Angles:   90.000000  90.000000  90.000000

Effective grid spacing dv^(1/3) = 0.2000

     iter     time        total  log10-change:
                         energy   eigst   dens
iter:   1 16:40:26    -5.039018   -0.82
iter:   2 16:40:28    -5.036322   -1.70  -2.13
iter:   3 16:40:30    -5.033864c  -2.33  -2.34
iter:   4 16:40:31    -5.034068c  -2.91  -2.82
iter:   5 16:40:33    -5.034274c  -3.22  -3.02
iter:   6 16:40:35    -5.034330c  -3.59  -3.35
iter:   7 16:40:37    -5.034347c  -3.97  -3.58
iter:   8 16:40:38    -5.034356c  -4.29  -3.80
iter:   9 16:40:40    -5.034362c  -4.61  -3.97
iter:  10 16:40:42    -5.034364c  -4.93  -4.18c
iter:  11 16:40:44    -5.034365c  -5.24  -4.39c
iter:  12 16:40:45    -5.034365c  -5.59  -4.63c
iter:  13 16:40:47    -5.034365c  -5.96  -4.80c
iter:  14 16:40:49    -5.034365c  -6.36  -5.08c
iter:  15 16:40:51    -5.034365c  -6.73  -5.22c
iter:  16 16:40:52    -5.034365c  -7.00  -5.32c
iter:  17 16:40:54    -5.034365c  -7.56c -5.92c

Converged after 17 iterations.

Dipole moment: (-0.092158, -0.103559, -0.030181) |e|*Ang

Energy contributions relative to reference atoms: (reference = -26511.662986)

Kinetic:         +5.039186
Potential:       -4.716433
External:        +0.000000
XC:              -5.172665
Entropy (-ST):   +0.000000
Local:           -0.184454
SIC:             +0.000000
--------------------------
Free energy:     -5.034365
Extrapolated:    -5.034365

 Band  Eigenvalues  Occupancy
    0    -27.94717    2.00000
    1    -27.94590    2.00000
    2    -27.94412    2.00000
    3    -27.94283    2.00000
    4    -27.94183    2.00000
    5    -27.94116    2.00000
    6    -27.93961    2.00000
    7    -27.93566    2.00000
    8    -27.93505    2.00000
    9    -27.93242    2.00000
   10    -27.92496    2.00000
   11    -27.92347    2.00000
   12    -27.91491    2.00000
   13    -27.91350    2.00000
   14    -27.90762    2.00000
   15    -27.88902    2.00000
   16    -27.85870    2.00000
   17    -27.85862    2.00000
   18     -4.10304    2.00000
   19     -2.97807    2.00000
   20     -2.97433    2.00000
   21     -1.84738    0.00000
   22     -1.69881    0.00000
   23     -1.68217    0.00000
   24     -1.35370    0.00000
   25     -0.81478    0.00000
   26     -0.80649    0.00000
   27     -0.42395    0.00000
   28     -0.40861    0.00000
   29     -0.31362    0.00000

Fermi level: -2.41085

Gap: 1.127 eV
Transition (v -> c):
  (s=0, k=0, n=20, [0.00, 0.00, 0.00]) -> (s=0, k=0, n=21, [0.00, 0.00, 0.00])
No difference between direct/indirect transitions

Forces in eV/Ang:
  0 Na    0.01685    0.02532    0.01608
  1 Na   -0.00549   -0.00616    0.00615
  2 Na   -0.01180    0.00306   -0.00235
  3 Na   -0.00414    0.00171   -0.02239
  4 Na    0.00616   -0.01145   -0.00145
  5 Na    0.00274   -0.00750    0.00531

System changes: positions 

Initializing position-dependent things.

Density initialized from wave functions
           .--------------------------------------.  
          /|                                      |  
         / |                                      |  
        /  |                                      |  
       /   |                                      |  
      /    |                                      |  
     /     |                                      |  
    /      |                                      |  
   /       |                                      |  
  /        |                                      |  
 *         |                                      |  
 |         |          Na                          |  
 |         |                                      |  
 |         |       Na      NNa                    |  
 |         |                                      |  
 |         |                                      |  
 |         |                                      |  
 |         |             Na   Na                  |  
 |         |                                      |  
 |         |                                      |  
 |         .--------------------------------------.  
 |        /                                      /   
 |       /                                      /    
 |      /                                      /     
 |     /                                      /      
 |    /                                      /       
 |   /                                      /        
 |  /                                      /         
 | /                                      /          
 |/                                      /           
 *--------------------------------------*            

Positions:
   0 Na     8.252540    9.579671    8.685483    ( 0.0000,  0.0000,  0.0000)
   1 Na     6.380560    8.072307   11.024642    ( 0.0000,  0.0000,  0.0000)
   2 Na     4.942056    9.965047    8.313453    ( 0.0000,  0.0000,  0.0000)
   3 Na     7.188451    9.808714    5.517090    ( 0.0000,  0.0000,  0.0000)
   4 Na    10.041399    7.812497    6.457430    ( 0.0000,  0.0000,  0.0000)
   5 Na     9.515704    6.694726    9.852756    ( 0.0000,  0.0000,  0.0000)

Unit cell:
           periodic     x           y           z      points  spacing
  1. axis:    no    16.000000    0.000000    0.000000    80     0.2000
  2. axis:    no     0.000000   16.000000    0.000000    80     0.2000
  3. axis:    no     0.000000    0.000000   16.000000    80     0.2000

  Lengths:  16.000000  16.000000  16.000000
  Angles:   90.000000  90.000000  90.000000

Effective grid spacing dv^(1/3) = 0.2000

     iter     time        total  log10-change:
                         energy   eigst   dens
iter:   1 16:40:56    -5.035196   -2.26
iter:   2 16:40:58    -5.035112   -3.15  -2.86
iter:   3 16:40:59    -5.035039c  -3.77  -3.09
iter:   4 16:41:01    -5.035048c  -4.34  -3.56
iter:   5 16:41:03    -5.035055c  -4.66  -3.77
iter:   6 16:41:04    -5.035057c  -5.04  -4.09c
iter:   7 16:41:06    -5.035057c  -5.46  -4.34c
iter:   8 16:41:08    -5.035058c  -5.75  -4.48c
iter:   9 16:41:09    -5.035058c  -6.10  -4.75c
iter:  10 16:41:11    -5.035058c  -6.42  -4.90c
iter:  11 16:41:13    -5.035058c  -6.75  -5.10c
iter:  12 16:41:14    -5.035058c  -7.10  -5.34c
iter:  13 16:41:16    -5.035058c  -7.47c -5.57c

Converged after 13 iterations.

Dipole moment: (-0.092327, -0.102101, -0.029707) |e|*Ang

Energy contributions relative to reference atoms: (reference = -26511.662986)

Kinetic:         +4.749234
Potential:       -4.500812
External:        +0.000000
XC:              -5.099048
Entropy (-ST):   +0.000000
Local:           -0.184431
SIC:             +0.000000
--------------------------
Free energy:     -5.035058
Extrapolated:    -5.035058

 Band  Eigenvalues  Occupancy
    0    -27.95036    2.00000
    1    -27.94923    2.00000
    2    -27.94755    2.00000
    3    -27.94649    2.00000
    4    -27.94578    2.00000
    5    -27.94491    2.00000
    6    -27.94342    2.00000
    7    -27.93925    2.00000
    8    -27.93856    2.00000
    9    -27.93583    2.00000
   10    -27.92859    2.00000
   11    -27.92715    2.00000
   12    -27.91888    2.00000
   13    -27.91749    2.00000
   14    -27.91160    2.00000
   15    -27.89898    2.00000
   16    -27.86869    2.00000
   17    -27.86858    2.00000
   18     -4.09196    2.00000
   19     -2.97464    2.00000
   20     -2.97130    2.00000
   21     -1.85070    0.00000
   22     -1.70235    0.00000
   23     -1.68520    0.00000
   24     -1.34892    0.00000
   25     -0.81749    0.00000
   26     -0.80948    0.00000
   27     -0.43030    0.00000
   28     -0.41554    0.00000
   29     -0.31436    0.00000

Fermi level: -2.41100

Gap: 1.121 eV
Transition (v -> c):
  (s=0, k=0, n=20, [0.00, 0.00, 0.00]) -> (s=0, k=0, n=21, [0.00, 0.00, 0.00])
No difference between direct/indirect transitions

Forces in eV/Ang:
  0 Na    0.00969    0.00939    0.00967
  1 Na    0.00353   -0.00010   -0.00674
  2 Na    0.00137    0.00008    0.00001
  3 Na   -0.00096   -0.00096   -0.00888
  4 Na   -0.00275   -0.00529    0.00643
  5 Na   -0.00543    0.00479    0.00001

System changes: positions 

Initializing position-dependent things.

Density initialized from wave functions
           .--------------------------------------.  
          /|                                      |  
         / |                                      |  
        /  |                                      |  
       /   |                                      |  
      /    |                                      |  
     /     |                                      |  
    /      |                                      |  
   /       |                                      |  
  /        |                                      |  
 *         |                                      |  
 |         |          Na                          |  
 |         |                                      |  
 |         |       Na      NNa                    |  
 |         |                                      |  
 |         |                                      |  
 |         |                                      |  
 |         |             Na   Na                  |  
 |         |                                      |  
 |         |                                      |  
 |         .--------------------------------------.  
 |        /                                      /   
 |       /                                      /    
 |      /                                      /     
 |     /                                      /      
 |    /                                      /       
 |   /                                      /        
 |  /                                      /         
 | /                                      /          
 |/                                      /           
 *--------------------------------------*            

Positions:
   0 Na     8.253384    9.581283    8.686109    ( 0.0000,  0.0000,  0.0000)
   1 Na     6.380006    8.071823   11.025451    ( 0.0000,  0.0000,  0.0000)
   2 Na     4.940972    9.965337    8.313323    ( 0.0000,  0.0000,  0.0000)
   3 Na     7.188060    9.808995    5.515966    ( 0.0000,  0.0000,  0.0000)
   4 Na    10.042151    7.811824    6.456751    ( 0.0000,  0.0000,  0.0000)
   5 Na     9.516245    6.693834    9.853249    ( 0.0000,  0.0000,  0.0000)

Unit cell:
           periodic     x           y           z      points  spacing
  1. axis:    no    16.000000    0.000000    0.000000    80     0.2000
  2. axis:    no     0.000000   16.000000    0.000000    80     0.2000
  3. axis:    no     0.000000    0.000000   16.000000    80     0.2000

  Lengths:  16.000000  16.000000  16.000000
  Angles:   90.000000  90.000000  90.000000

Effective grid spacing dv^(1/3) = 0.2000

     iter     time        total  log10-change:
                         energy   eigst   dens
iter:   1 16:41:18    -5.035073   -4.19
iter:   2 16:41:20    -5.035072   -5.07  -3.85
iter:   3 16:41:22    -5.035071c  -5.68  -4.07c
iter:   4 16:41:23    -5.035072c  -6.26  -4.54c
iter:   5 16:41:25    -5.035072c  -6.56  -4.73c
iter:   6 16:41:27    -5.035072c  -6.94  -5.09c
iter:   7 16:41:28    -5.035072c  -7.35  -5.31c
iter:   8 16:41:30    -5.035072c  -7.64c -5.43c

Converged after 8 iterations.

Dipole moment: (-0.092329, -0.101925, -0.029645) |e|*Ang

Energy contributions relative to reference atoms: (reference = -26511.662986)

Kinetic:         +4.721155
Potential:       -4.480230
External:        +0.000000
XC:              -5.091601
Entropy (-ST):   +0.000000
Local:           -0.184395
SIC:             +0.000000
--------------------------
Free energy:     -5.035072
Extrapolated:    -5.035072

 Band  Eigenvalues  Occupancy
    0    -27.95065    2.00000
    1    -27.94953    2.00000
    2    -27.94787    2.00000
    3    -27.94683    2.00000
    4    -27.94614    2.00000
    5    -27.94522    2.00000
    6    -27.94376    2.00000
    7    -27.93962    2.00000
    8    -27.93886    2.00000
    9    -27.93615    2.00000
   10    -27.92892    2.00000
   11    -27.92749    2.00000
   12    -27.91924    2.00000
   13    -27.91785    2.00000
   14    -27.91199    2.00000
   15    -27.90011    2.00000
   16    -27.86984    2.00000
   17    -27.86972    2.00000
   18     -4.09080    2.00000
   19     -2.97426    2.00000
   20     -2.97098    2.00000
   21     -1.85113    0.00000
   22     -1.70267    0.00000
   23     -1.68552    0.00000
   24     -1.34839    0.00000
   25     -0.81781    0.00000
   26     -0.80983    0.00000
   27     -0.43101    0.00000
   28     -0.41643    0.00000
   29     -0.31459    0.00000

Fermi level: -2.41106

Gap: 1.120 eV
Transition (v -> c):
  (s=0, k=0, n=20, [0.00, 0.00, 0.00]) -> (s=0, k=0, n=21, [0.00, 0.00, 0.00])
No difference between direct/indirect transitions

Forces in eV/Ang:
  0 Na    0.00883    0.00764    0.00869
  1 Na    0.00436    0.00047   -0.00799
  2 Na    0.00278   -0.00021    0.00025
  3 Na   -0.00058   -0.00125   -0.00722
  4 Na   -0.00371   -0.00454    0.00725
  5 Na   -0.00625    0.00612   -0.00056

System changes: positions 

Initializing position-dependent things.

Density initialized from wave functions
           .--------------------------------------.  
          /|                                      |  
         / |                                      |  
        /  |                                      |  
       /   |                                      |  
      /    |                                      |  
     /     |                                      |  
    /      |                                      |  
   /       |                                      |  
  /        |                                      |  
 *         |                                      |  
 |         |          Na                          |  
 |         |                                      |  
 |         |       Na      NNa                    |  
 |         |                                      |  
 |         |                                      |  
 |         |                                      |  
 |         |             Na   Na                  |  
 |         |                                      |  
 |         |                                      |  
 |         .--------------------------------------.  
 |        /                                      /   
 |       /                                      /    
 |      /                                      /     
 |     /                                      /      
 |    /                                      /       
 |   /                                      /        
 |  /                                      /         
 | /                                      /          
 |/                                      /           
 *--------------------------------------*            

Positions:
   0 Na     8.254037    9.582320    8.686642    ( 0.0000,  0.0000,  0.0000)
   1 Na     6.379808    8.071575   11.025704    ( 0.0000,  0.0000,  0.0000)
   2 Na     4.940454    9.965488    8.313260    ( 0.0000,  0.0000,  0.0000)
   3 Na     7.187838    9.809118    5.515200    ( 0.0000,  0.0000,  0.0000)
   4 Na    10.042470    7.811361    6.456551    ( 0.0000,  0.0000,  0.0000)
   5 Na     9.516393    6.693495    9.853500    ( 0.0000,  0.0000,  0.0000)

Unit cell:
           periodic     x           y           z      points  spacing
  1. axis:    no    16.000000    0.000000    0.000000    80     0.2000
  2. axis:    no     0.000000   16.000000    0.000000    80     0.2000
  3. axis:    no     0.000000    0.000000   16.000000    80     0.2000

  Lengths:  16.000000  16.000000  16.000000
  Angles:   90.000000  90.000000  90.000000

Effective grid spacing dv^(1/3) = 0.2000

     iter     time        total  log10-change:
                         energy   eigst   dens
iter:   1 16:41:33    -5.035085   -4.66
iter:   2 16:41:34    -5.035085   -5.54  -4.12c
iter:   3 16:41:36    -5.035085c  -6.17  -4.34c
iter:   4 16:41:38    -5.035085c  -6.65  -4.77c
iter:   5 16:41:40    -5.035085c  -6.95  -4.93c
iter:   6 16:41:42    -5.035085c  -7.32  -5.40c
iter:   7 16:41:44    -5.035085c  -7.75c -5.62c

Converged after 7 iterations.

Dipole moment: (-0.092314, -0.101824, -0.029604) |e|*Ang

Energy contributions relative to reference atoms: (reference = -26511.662986)

Kinetic:         +4.703512
Potential:       -4.466866
External:        +0.000000
XC:              -5.087305
Entropy (-ST):   +0.000000
Local:           -0.184426
SIC:             +0.000000
--------------------------
Free energy:     -5.035085
Extrapolated:    -5.035085

 Band  Eigenvalues  Occupancy
    0    -27.95084    2.00000
    1    -27.94973    2.00000
    2    -27.94806    2.00000
    3    -27.94705    2.00000
    4    -27.94634    2.00000
    5    -27.94540    2.00000
    6    -27.94396    2.00000
    7    -27.93991    2.00000
    8    -27.93904    2.00000
    9    -27.93638    2.00000
   10    -27.92912    2.00000
   11    -27.92770    2.00000
   12    -27.91945    2.00000
   13    -27.91806    2.00000
   14    -27.91227    2.00000
   15    -27.90092    2.00000
   16    -27.87065    2.00000
   17    -27.87054    2.00000
   18     -4.09024    2.00000
   19     -2.97406    2.00000
   20     -2.97084    2.00000
   21     -1.85149    0.00000
   22     -1.70279    0.00000
   23     -1.68571    0.00000
   24     -1.34811    0.00000
   25     -0.81806    0.00000
   26     -0.81008    0.00000
   27     -0.43136    0.00000
   28     -0.41690    0.00000
   29     -0.31473    0.00000

Fermi level: -2.41117

Gap: 1.119 eV
Transition (v -> c):
  (s=0, k=0, n=20, [0.00, 0.00, 0.00]) -> (s=0, k=0, n=21, [0.00, 0.00, 0.00])
No difference between direct/indirect transitions

Forces in eV/Ang:
  0 Na    0.00824    0.00679    0.00782
  1 Na    0.00465    0.00074   -0.00849
  2 Na    0.00359   -0.00037    0.00030
  3 Na   -0.00036   -0.00142   -0.00605
  4 Na   -0.00422   -0.00408    0.00764
  5 Na   -0.00656    0.00667   -0.00079

System changes: positions 

Initializing position-dependent things.

Density initialized from wave functions
           .--------------------------------------.  
          /|                                      |  
         / |                                      |  
        /  |                                      |  
       /   |                                      |  
      /    |                                      |  
     /     |                                      |  
    /      |                                      |  
   /       |                                      |  
  /        |                                      |  
 *         |                                      |  
 |         |          Na                          |  
 |         |                                      |  
 |         |       Na      NNa                    |  
 |         |                                      |  
 |         |                                      |  
 |         |                                      |  
 |         |             Na   Na                  |  
 |         |                                      |  
 |         |                                      |  
 |         .--------------------------------------.  
 |        /                                      /   
 |       /                                      /    
 |      /                                      /     
 |     /                                      /      
 |    /                                      /       
 |   /                                      /        
 |  /                                      /         
 | /                                      /          
 |/                                      /           
 *--------------------------------------*            

Positions:
   0 Na     8.256449    9.585619    8.688728    ( 0.0000,  0.0000,  0.0000)
   1 Na     6.379671    8.070982   11.025669    ( 0.0000,  0.0000,  0.0000)
   2 Na     4.939379    9.965853    8.313114    ( 0.0000,  0.0000,  0.0000)
   3 Na     7.187224    9.809320    5.512641    ( 0.0000,  0.0000,  0.0000)
   4 Na    10.042962    7.809795    6.456667    ( 0.0000,  0.0000,  0.0000)
   5 Na     9.516238    6.693150    9.854095    ( 0.0000,  0.0000,  0.0000)

Unit cell:
           periodic     x           y           z      points  spacing
  1. axis:    no    16.000000    0.000000    0.000000    80     0.2000
  2. axis:    no     0.000000   16.000000    0.000000    80     0.2000
  3. axis:    no     0.000000    0.000000   16.000000    80     0.2000

  Lengths:  16.000000  16.000000  16.000000
  Angles:   90.000000  90.000000  90.000000

Effective grid spacing dv^(1/3) = 0.2000

     iter     time        total  log10-change:
                         energy   eigst   dens
iter:   1 16:41:46    -5.035143   -3.69
iter:   2 16:41:49    -5.035139   -4.57  -3.57
iter:   3 16:41:51    -5.035139c  -5.22  -3.89
iter:   4 16:41:53    -5.035139c  -5.60  -4.13c
iter:   5 16:41:55    -5.035140c  -6.02  -4.44c
iter:   6 16:41:57    -5.035140c  -6.29  -4.70c
iter:   7 16:41:59    -5.035140c  -6.74  -5.17c
iter:   8 16:42:01    -5.035140c  -7.09  -5.29c
iter:   9 16:42:03    -5.035140c  -7.39  -5.43c
iter:  10 16:42:05    -5.035140c  -7.77c -5.73c

Converged after 10 iterations.

Dipole moment: (-0.092215, -0.101517, -0.029481) |e|*Ang

Energy contributions relative to reference atoms: (reference = -26511.662986)

Kinetic:         +4.664939
Potential:       -4.438201
External:        +0.000000
XC:              -5.077441
Entropy (-ST):   +0.000000
Local:           -0.184437
SIC:             +0.000000
--------------------------
Free energy:     -5.035140
Extrapolated:    -5.035140

 Band  Eigenvalues  Occupancy
    0    -27.95112    2.00000
    1    -27.95000    2.00000
    2    -27.94832    2.00000
    3    -27.94740    2.00000
    4    -27.94658    2.00000
    5    -27.94553    2.00000
    6    -27.94417    2.00000
    7    -27.94067    2.00000
    8    -27.93920    2.00000
    9    -27.93682    2.00000
   10    -27.92939    2.00000
   11    -27.92802    2.00000
   12    -27.91971    2.00000
   13    -27.91835    2.00000
   14    -27.91287    2.00000
   15    -27.90339    2.00000
   16    -27.87317    2.00000
   17    -27.87304    2.00000
   18     -4.08895    2.00000
   19     -2.97346    2.00000
   20     -2.97051    2.00000
   21     -1.85283    0.00000
   22     -1.70279    0.00000
   23     -1.68619    0.00000
   24     -1.34733    0.00000
   25     -0.81887    0.00000
   26     -0.81087    0.00000
   27     -0.43188    0.00000
   28     -0.41765    0.00000
   29     -0.31463    0.00000

Fermi level: -2.41167

Gap: 1.118 eV
Transition (v -> c):
  (s=0, k=0, n=20, [0.00, 0.00, 0.00]) -> (s=0, k=0, n=21, [0.00, 0.00, 0.00])
No difference between direct/indirect transitions

Forces in eV/Ang:
  0 Na    0.00618    0.00480    0.00436
  1 Na    0.00488    0.00144   -0.00934
  2 Na    0.00593   -0.00072    0.00022
  3 Na    0.00042   -0.00194   -0.00211
  4 Na   -0.00559   -0.00267    0.00845
  5 Na   -0.00687    0.00749   -0.00103

System changes: positions 

Initializing position-dependent things.

Density initialized from wave functions
           .--------------------------------------.  
          /|                                      |  
         / |                                      |  
        /  |                                      |  
       /   |                                      |  
      /    |                                      |  
     /     |                                      |  
    /      |                                      |  
   /       |                                      |  
  /        |                                      |  
 *         |                                      |  
 |         |          Na                          |  
 |         |                                      |  
 |         |       Na      NNa                    |  
 |         |                                      |  
 |         |                                      |  
 |         |                                      |  
 |         |             Na   Na                  |  
 |         |                                      |  
 |         |                                      |  
 |         .--------------------------------------.  
 |        /                                      /   
 |       /                                      /    
 |      /                                      /     
 |     /                                      /      
 |    /                                      /       
 |   /                                      /        
 |  /                                      /         
 | /                                      /          
 |/                                      /           
 *--------------------------------------*            

Positions:
   0 Na     8.259767    9.589387    8.691748    ( 0.0000,  0.0000,  0.0000)
   1 Na     6.380350    8.070647   11.024192    ( 0.0000,  0.0000,  0.0000)
   2 Na     4.939150    9.966072    8.313042    ( 0.0000,  0.0000,  0.0000)
   3 Na     7.186692    9.809225    5.509542    ( 0.0000,  0.0000,  0.0000)
   4 Na    10.042618    7.807857    6.458090    ( 0.0000,  0.0000,  0.0000)
   5 Na     9.514996    6.694008    9.854430    ( 0.0000,  0.0000,  0.0000)

Unit cell:
           periodic     x           y           z      points  spacing
  1. axis:    no    16.000000    0.000000    0.000000    80     0.2000
  2. axis:    no     0.000000   16.000000    0.000000    80     0.2000
  3. axis:    no     0.000000    0.000000   16.000000    80     0.2000

  Lengths:  16.000000  16.000000  16.000000
  Angles:   90.000000  90.000000  90.000000

Effective grid spacing dv^(1/3) = 0.2000

     iter     time        total  log10-change:
                         energy   eigst   dens
iter:   1 16:42:07    -5.035243   -3.47
iter:   2 16:42:09    -5.035220   -4.39  -3.37
iter:   3 16:42:11    -5.035221c  -5.01  -3.82
iter:   4 16:42:13    -5.035222c  -5.42  -3.98
iter:   5 16:42:15    -5.035222c  -5.81  -4.32c
iter:   6 16:42:17    -5.035223c  -6.11  -4.58c
iter:   7 16:42:19    -5.035223c  -6.46  -4.96c
iter:   8 16:42:20    -5.035223c  -6.82  -5.19c
iter:   9 16:42:22    -5.035223c  -7.11  -5.29c
iter:  10 16:42:24    -5.035223c  -7.52c -5.72c

Converged after 10 iterations.

Dipole moment: (-0.091996, -0.101163, -0.029334) |e|*Ang

Energy contributions relative to reference atoms: (reference = -26511.662986)

Kinetic:         +4.640330
Potential:       -4.419869
External:        +0.000000
XC:              -5.071227
Entropy (-ST):   +0.000000
Local:           -0.184457
SIC:             +0.000000
--------------------------
Free energy:     -5.035223
Extrapolated:    -5.035223

 Band  Eigenvalues  Occupancy
    0    -27.95116    2.00000
    1    -27.94999    2.00000
    2    -27.94831    2.00000
    3    -27.94748    2.00000
    4    -27.94639    2.00000
    5    -27.94517    2.00000
    6    -27.94398    2.00000
    7    -27.94151    2.00000
    8    -27.93895    2.00000
    9    -27.93707    2.00000
   10    -27.92933    2.00000
   11    -27.92802    2.00000
   12    -27.91957    2.00000
   13    -27.91830    2.00000
   14    -27.91328    2.00000
   15    -27.90626    2.00000
   16    -27.87612    2.00000
   17    -27.87598    2.00000
   18     -4.08843    2.00000
   19     -2.97293    2.00000
   20     -2.97042    2.00000
   21     -1.85474    0.00000
   22     -1.70226    0.00000
   23     -1.68656    0.00000
   24     -1.34669    0.00000
   25     -0.81995    0.00000
   26     -0.81186    0.00000
   27     -0.43172    0.00000
   28     -0.41777    0.00000
   29     -0.31413    0.00000

Fermi level: -2.41258

Gap: 1.116 eV
Transition (v -> c):
  (s=0, k=0, n=20, [0.00, 0.00, 0.00]) -> (s=0, k=0, n=21, [0.00, 0.00, 0.00])
No difference between direct/indirect transitions

Forces in eV/Ang:
  0 Na    0.00348    0.00394   -0.00056
  1 Na    0.00390    0.00185   -0.00897
  2 Na    0.00808   -0.00093   -0.00030
  3 Na    0.00136   -0.00250    0.00267
  4 Na   -0.00665   -0.00119    0.00860
  5 Na   -0.00603    0.00680   -0.00048

System changes: positions 

Initializing position-dependent things.

Density initialized from wave functions
           .--------------------------------------.  
          /|                                      |  
         / |                                      |  
        /  |                                      |  
       /   |                                      |  
      /    |                                      |  
     /     |                                      |  
    /      |                                      |  
   /       |                                      |  
  /        |                                      |  
 *         |                                      |  
 |         |          Na                          |  
 |         |                                      |  
 |         |       Na      NNa                    |  
 |         |                                      |  
 |         |                                      |  
 |         |                                      |  
 |         |             Na   Na                  |  
 |         |                                      |  
 |         |                                      |  
 |         .--------------------------------------.  
 |        /                                      /   
 |       /                                      /    
 |      /                                      /     
 |     /                                      /      
 |    /                                      /       
 |   /                                      /        
 |  /                                      /         
 | /                                      /          
 |/                                      /           
 *--------------------------------------*            

Positions:
   0 Na     8.264254    9.593407    8.696014    ( 0.0000,  0.0000,  0.0000)
   1 Na     6.382524    8.070895   11.020097    ( 0.0000,  0.0000,  0.0000)
   2 Na     4.940698    9.965953    8.313118    ( 0.0000,  0.0000,  0.0000)
   3 Na     7.186439    9.808538    5.505997    ( 0.0000,  0.0000,  0.0000)
   4 Na    10.040637    7.805547    6.461882    ( 0.0000,  0.0000,  0.0000)
   5 Na     9.511811    6.697107    9.854193    ( 0.0000,  0.0000,  0.0000)

Unit cell:
           periodic     x           y           z      points  spacing
  1. axis:    no    16.000000    0.000000    0.000000    80     0.2000
  2. axis:    no     0.000000   16.000000    0.000000    80     0.2000
  3. axis:    no     0.000000    0.000000   16.000000    80     0.2000

  Lengths:  16.000000  16.000000  16.000000
  Angles:   90.000000  90.000000  90.000000

Effective grid spacing dv^(1/3) = 0.2000

     iter     time        total  log10-change:
                         energy   eigst   dens
iter:   1 16:42:27    -5.035427   -3.11
iter:   2 16:42:28    -5.035337   -4.04  -3.12
iter:   3 16:42:30    -5.035337c  -4.62  -3.62
iter:   4 16:42:32    -5.035339c  -5.05  -3.80
iter:   5 16:42:34    -5.035340c  -5.41  -4.07c
iter:   6 16:42:36    -5.035341c  -5.78  -4.46c
iter:   7 16:42:38    -5.035341c  -6.11  -4.74c
iter:   8 16:42:40    -5.035341c  -6.42  -5.05c
iter:   9 16:42:42    -5.035341c  -6.72  -5.20c
iter:  10 16:42:44    -5.035341c  -7.01  -5.44c
iter:  11 16:42:46    -5.035341c  -7.32  -5.64c
iter:  12 16:42:48    -5.035341c  -7.60c -5.75c

Converged after 12 iterations.

Dipole moment: (-0.091581, -0.100852, -0.029176) |e|*Ang

Energy contributions relative to reference atoms: (reference = -26511.662986)

Kinetic:         +4.647893
Potential:       -4.425196
External:        +0.000000
XC:              -5.073593
Entropy (-ST):   +0.000000
Local:           -0.184445
SIC:             +0.000000
--------------------------
Free energy:     -5.035341
Extrapolated:    -5.035341

 Band  Eigenvalues  Occupancy
    0    -27.95073    2.00000
    1    -27.94938    2.00000
    2    -27.94781    2.00000
    3    -27.94698    2.00000
    4    -27.94524    2.00000
    5    -27.94384    2.00000
    6    -27.94315    2.00000
    7    -27.94205    2.00000
    8    -27.93796    2.00000
    9    -27.93676    2.00000
   10    -27.92864    2.00000
   11    -27.92732    2.00000
   12    -27.91869    2.00000
   13    -27.91760    2.00000
   14    -27.91293    2.00000
   15    -27.90937    2.00000
   16    -27.87937    2.00000
   17    -27.87922    2.00000
   18     -4.08954    2.00000
   19     -2.97265    2.00000
   20     -2.97080    2.00000
   21     -1.85742    0.00000
   22     -1.70081    0.00000
   23     -1.68652    0.00000
   24     -1.34647    0.00000
   25     -0.82131    0.00000
   26     -0.81302    0.00000
   27     -0.43029    0.00000
   28     -0.41673    0.00000
   29     -0.31301    0.00000

Fermi level: -2.41411

Gap: 1.113 eV
Transition (v -> c):
  (s=0, k=0, n=20, [0.00, 0.00, 0.00]) -> (s=0, k=0, n=21, [0.00, 0.00, 0.00])
No difference between direct/indirect transitions

Forces in eV/Ang:
  0 Na    0.00032    0.00589   -0.00709
  1 Na    0.00064    0.00162   -0.00604
  2 Na    0.00941   -0.00074   -0.00168
  3 Na    0.00245   -0.00300    0.00819
  4 Na   -0.00688    0.00016    0.00735
  5 Na   -0.00309    0.00335    0.00149

System changes: positions 

Initializing position-dependent things.

Density initialized from wave functions
           .--------------------------------------.  
          /|                                      |  
         / |                                      |  
        /  |                                      |  
       /   |                                      |  
      /    |                                      |  
     /     |                                      |  
    /      |                                      |  
   /       |                                      |  
  /        |                                      |  
 *         |                                      |  
 |         |          Na                          |  
 |         |                                      |  
 |         |       Na      NNa                    |  
 |         |                                      |  
 |         |                                      |  
 |         |                                      |  
 |         |             Na   Na                  |  
 |         |                                      |  
 |         |                                      |  
 |         .--------------------------------------.  
 |        /                                      /   
 |       /                                      /    
 |      /                                      /     
 |     /                                      /      
 |    /                                      /       
 |   /                                      /        
 |  /                                      /         
 | /                                      /          
 |/                                      /           
 *--------------------------------------*            

Positions:
   0 Na     8.266477    9.594390    8.698247    ( 0.0000,  0.0000,  0.0000)
   1 Na     6.384851    8.071735   11.015927    ( 0.0000,  0.0000,  0.0000)
   2 Na     4.943408    9.965473    8.313308    ( 0.0000,  0.0000,  0.0000)
   3 Na     7.186808    9.807610    5.504961    ( 0.0000,  0.0000,  0.0000)
   4 Na    10.038077    7.804716    6.465696    ( 0.0000,  0.0000,  0.0000)
   5 Na     9.508711    6.700600    9.853407    ( 0.0000,  0.0000,  0.0000)

Unit cell:
           periodic     x           y           z      points  spacing
  1. axis:    no    16.000000    0.000000    0.000000    80     0.2000
  2. axis:    no     0.000000   16.000000    0.000000    80     0.2000
  3. axis:    no     0.000000    0.000000   16.000000    80     0.2000

  Lengths:  16.000000  16.000000  16.000000
  Angles:   90.000000  90.000000  90.000000

Effective grid spacing dv^(1/3) = 0.2000

     iter     time        total  log10-change:
                         energy   eigst   dens
iter:   1 16:42:50    -5.035475   -3.30
iter:   2 16:42:52    -5.035414   -4.25  -3.20
iter:   3 16:42:54    -5.035409c  -4.85  -3.65
iter:   4 16:42:56    -5.035410c  -5.25  -3.89
iter:   5 16:42:57    -5.035410c  -5.63  -4.17c
iter:   6 16:42:59    -5.035410c  -6.07  -4.57c
iter:   7 16:43:01    -5.035410c  -6.50  -4.85c
iter:   8 16:43:03    -5.035410c  -6.82  -5.13c
iter:   9 16:43:05    -5.035410c  -7.03  -5.24c
iter:  10 16:43:07    -5.035410c  -7.34  -5.64c
iter:  11 16:43:09    -5.035410c  -7.68c -5.77c

Converged after 11 iterations.

Dipole moment: (-0.091273, -0.100838, -0.029163) |e|*Ang

Energy contributions relative to reference atoms: (reference = -26511.662986)

Kinetic:         +4.694485
Potential:       -4.459577
External:        +0.000000
XC:              -5.085858
Entropy (-ST):   +0.000000
Local:           -0.184460
SIC:             +0.000000
--------------------------
Free energy:     -5.035410
Extrapolated:    -5.035410

 Band  Eigenvalues  Occupancy
    0    -27.95000    2.00000
    1    -27.94851    2.00000
    2    -27.94711    2.00000
    3    -27.94610    2.00000
    4    -27.94386    2.00000
    5    -27.94282    2.00000
    6    -27.94229    2.00000
    7    -27.94118    2.00000
    8    -27.93690    2.00000
    9    -27.93588    2.00000
   10    -27.92772    2.00000
   11    -27.92628    2.00000
   12    -27.91768    2.00000
   13    -27.91654    2.00000
   14    -27.91186    2.00000
   15    -27.91014    2.00000
   16    -27.88023    2.00000
   17    -27.88007    2.00000
   18     -4.09197    2.00000
   19     -2.97296    2.00000
   20     -2.97152    2.00000
   21     -1.85889    0.00000
   22     -1.69937    0.00000
   23     -1.68595    0.00000
   24     -1.34702    0.00000
   25     -0.82192    0.00000
   26     -0.81343    0.00000
   27     -0.42837    0.00000
   28     -0.41508    0.00000
   29     -0.31219    0.00000

Fermi level: -2.41521

Gap: 1.113 eV
Transition (v -> c):
  (s=0, k=0, n=20, [0.00, 0.00, 0.00]) -> (s=0, k=0, n=21, [0.00, 0.00, 0.00])
No difference between direct/indirect transitions

Forces in eV/Ang:
  0 Na   -0.00064    0.00983   -0.01040
  1 Na   -0.00290    0.00063   -0.00213
  2 Na    0.00840   -0.00020   -0.00298
  3 Na    0.00278   -0.00300    0.00989
  4 Na   -0.00576    0.00004    0.00529
  5 Na    0.00010   -0.00063    0.00346

System changes: positions 

Initializing position-dependent things.

Density initialized from wave functions
           .--------------------------------------.  
          /|                                      |  
         / |                                      |  
        /  |                                      |  
       /   |                                      |  
      /    |                                      |  
     /     |                                      |  
    /      |                                      |  
   /       |                                      |  
  /        |                                      |  
 *         |                                      |  
 |         |          Na                          |  
 |         |                                      |  
 |         |       Na      NNa                    |  
 |         |                                      |  
 |         |                                      |  
 |         |                                      |  
 |         |             Na   Na                  |  
 |         |                                      |  
 |         |                                      |  
 |         .--------------------------------------.  
 |        /                                      /   
 |       /                                      /    
 |      /                                      /     
 |     /                                      /      
 |    /                                      /       
 |   /                                      /        
 |  /                                      /         
 | /                                      /          
 |/                                      /           
 *--------------------------------------*            

Positions:
   0 Na     8.266424    9.593548    8.698203    ( 0.0000,  0.0000,  0.0000)
   1 Na     6.385918    8.072384   11.014023    ( 0.0000,  0.0000,  0.0000)
   2 Na     4.945230    9.965092    8.313410    ( 0.0000,  0.0000,  0.0000)
   3 Na     7.187287    9.807055    5.505746    ( 0.0000,  0.0000,  0.0000)
   4 Na    10.036615    7.805022    6.467456    ( 0.0000,  0.0000,  0.0000)
   5 Na     9.507376    6.702322    9.852842    ( 0.0000,  0.0000,  0.0000)

Unit cell:
           periodic     x           y           z      points  spacing
  1. axis:    no    16.000000    0.000000    0.000000    80     0.2000
  2. axis:    no     0.000000   16.000000    0.000000    80     0.2000
  3. axis:    no     0.000000    0.000000   16.000000    80     0.2000

  Lengths:  16.000000  16.000000  16.000000
  Angles:   90.000000  90.000000  90.000000

Effective grid spacing dv^(1/3) = 0.2000

     iter     time        total  log10-change:
                         energy   eigst   dens
iter:   1 16:43:11    -5.035443   -3.92
iter:   2 16:43:13    -5.035435   -4.85  -3.58
iter:   3 16:43:15    -5.035433c  -5.48  -3.91
iter:   4 16:43:16    -5.035433c  -5.95  -4.28c
iter:   5 16:43:18    -5.035433c  -6.34  -4.58c
iter:   6 16:43:20    -5.035433c  -6.81  -4.87c
iter:   7 16:43:22    -5.035433c  -7.24  -5.29c
iter:   8 16:43:24    -5.035433c  -7.59c -5.45c

Converged after 8 iterations.

Dipole moment: (-0.091192, -0.100949, -0.029263) |e|*Ang

Energy contributions relative to reference atoms: (reference = -26511.662986)

Kinetic:         +4.735122
Potential:       -4.489833
External:        +0.000000
XC:              -5.096240
Entropy (-ST):   +0.000000
Local:           -0.184483
SIC:             +0.000000
--------------------------
Free energy:     -5.035433
Extrapolated:    -5.035433

 Band  Eigenvalues  Occupancy
    0    -27.94941    2.00000
    1    -27.94789    2.00000
    2    -27.94655    2.00000
    3    -27.94542    2.00000
    4    -27.94306    2.00000
    5    -27.94232    2.00000
    6    -27.94152    2.00000
    7    -27.94043    2.00000
    8    -27.93624    2.00000
    9    -27.93523    2.00000
   10    -27.92706    2.00000
   11    -27.92559    2.00000
   12    -27.91699    2.00000
   13    -27.91580    2.00000
   14    -27.91109    2.00000
   15    -27.90942    2.00000
   16    -27.87952    2.00000
   17    -27.87936    2.00000
   18     -4.09365    2.00000
   19     -2.97332    2.00000
   20     -2.97199    2.00000
   21     -1.85898    0.00000
   22     -1.69865    0.00000
   23     -1.68544    0.00000
   24     -1.34759    0.00000
   25     -0.82181    0.00000
   26     -0.81326    0.00000
   27     -0.42724    0.00000
   28     -0.41408    0.00000
   29     -0.31202    0.00000

Fermi level: -2.41549

Gap: 1.113 eV
Transition (v -> c):
  (s=0, k=0, n=20, [0.00, 0.00, 0.00]) -> (s=0, k=0, n=21, [0.00, 0.00, 0.00])
No difference between direct/indirect transitions

Forces in eV/Ang:
  0 Na   -0.00004    0.01233   -0.01044
  1 Na   -0.00451   -0.00018   -0.00001
  2 Na    0.00685    0.00019   -0.00351
  3 Na    0.00254   -0.00275    0.00888
  4 Na   -0.00458   -0.00068    0.00401
  5 Na    0.00153   -0.00259    0.00437

System changes: positions 

Initializing position-dependent things.

Density initialized from wave functions
           .--------------------------------------.  
          /|                                      |  
         / |                                      |  
        /  |                                      |  
       /   |                                      |  
      /    |                                      |  
     /     |                                      |  
    /      |                                      |  
   /       |                                      |  
  /        |                                      |  
 *         |                                      |  
 |         |          Na                          |  
 |         |                                      |  
 |         |       Na      NNa                    |  
 |         |                                      |  
 |         |                                      |  
 |         |                                      |  
 |         |             Na   Na                  |  
 |         |                                      |  
 |         |                                      |  
 |         .--------------------------------------.  
 |        /                                      /   
 |       /                                      /    
 |      /                                      /     
 |     /                                      /      
 |    /                                      /       
 |   /                                      /        
 |  /                                      /         
 | /                                      /          
 |/                                      /           
 *--------------------------------------*            

Positions:
   0 Na     8.265952    9.592857    8.697587    ( 0.0000,  0.0000,  0.0000)
   1 Na     6.386261    8.072740   11.013301    ( 0.0000,  0.0000,  0.0000)
   2 Na     4.946267    9.964881    8.313406    ( 0.0000,  0.0000,  0.0000)
   3 Na     7.187637    9.806748    5.506703    ( 0.0000,  0.0000,  0.0000)
   4 Na    10.035870    7.805418    6.468190    ( 0.0000,  0.0000,  0.0000)
   5 Na     9.506925    6.702994    9.852602    ( 0.0000,  0.0000,  0.0000)

Unit cell:
           periodic     x           y           z      points  spacing
  1. axis:    no    16.000000    0.000000    0.000000    80     0.2000
  2. axis:    no     0.000000   16.000000    0.000000    80     0.2000
  3. axis:    no     0.000000    0.000000   16.000000    80     0.2000

  Lengths:  16.000000  16.000000  16.000000
  Angles:   90.000000  90.000000  90.000000

Effective grid spacing dv^(1/3) = 0.2000

     iter     time        total  log10-change:
                         energy   eigst   dens
iter:   1 16:43:26    -5.035448   -4.43
iter:   2 16:43:28    -5.035446   -5.33  -3.90
iter:   3 16:43:29    -5.035446c  -5.97  -4.18c
iter:   4 16:43:32    -5.035446c  -6.45  -4.60c
iter:   5 16:43:34    -5.035446c  -6.82  -4.85c
iter:   6 16:43:35    -5.035446c  -7.21  -5.13c
iter:   7 16:43:37    -5.035446c  -7.63c -5.58c

Converged after 7 iterations.

Dipole moment: (-0.091186, -0.101020, -0.029377) |e|*Ang

Energy contributions relative to reference atoms: (reference = -26511.662986)

Kinetic:         +4.759640
Potential:       -4.508234
External:        +0.000000
XC:              -5.102381
Entropy (-ST):   +0.000000
Local:           -0.184471
SIC:             +0.000000
--------------------------
Free energy:     -5.035446
Extrapolated:    -5.035446

 Band  Eigenvalues  Occupancy
    0    -27.94907    2.00000
    1    -27.94756    2.00000
    2    -27.94623    2.00000
    3    -27.94503    2.00000
    4    -27.94271    2.00000
    5    -27.94195    2.00000
    6    -27.94117    2.00000
    7    -27.94004    2.00000
    8    -27.93590    2.00000
    9    -27.93488    2.00000
   10    -27.92669    2.00000
   11    -27.92524    2.00000
   12    -27.91660    2.00000
   13    -27.91542    2.00000
   14    -27.91070    2.00000
   15    -27.90871    2.00000
   16    -27.87880    2.00000
   17    -27.87864    2.00000
   18     -4.09457    2.00000
   19     -2.97355    2.00000
   20     -2.97225    2.00000
   21     -1.85882    0.00000
   22     -1.69835    0.00000
   23     -1.68514    0.00000
   24     -1.34795    0.00000
   25     -0.82164    0.00000
   26     -0.81307    0.00000
   27     -0.42670    0.00000
   28     -0.41361    0.00000
   29     -0.31208    0.00000

Fermi level: -2.41554

Gap: 1.113 eV
Transition (v -> c):
  (s=0, k=0, n=20, [0.00, 0.00, 0.00]) -> (s=0, k=0, n=21, [0.00, 0.00, 0.00])
No difference between direct/indirect transitions

Forces in eV/Ang:
  0 Na    0.00075    0.01343   -0.00954
  1 Na   -0.00506   -0.00056    0.00084
  2 Na    0.00567    0.00042   -0.00362
  3 Na    0.00228   -0.00251    0.00751
  4 Na   -0.00376   -0.00128    0.00336
  5 Na    0.00198   -0.00331    0.00472

System changes: positions 

Initializing position-dependent things.

Density initialized from wave functions
           .--------------------------------------.  
          /|                                      |  
         / |                                      |  
        /  |                                      |  
       /   |                                      |  
      /    |                                      |  
     /     |                                      |  
    /      |                                      |  
   /       |                                      |  
  /        |                                      |  
 *         |                                      |  
 |         |          Na                          |  
 |         |                                      |  
 |         |       Na      NNa                    |  
 |         |                                      |  
 |         |                                      |  
 |         |                                      |  
 |         |             Na   Na                  |  
 |         |                                      |  
 |         |                                      |  
 |         .--------------------------------------.  
 |        /                                      /   
 |       /                                      /    
 |      /                                      /     
 |     /                                      /      
 |    /                                      /       
 |   /                                      /        
 |  /                                      /         
 | /                                      /          
 |/                                      /           
 *--------------------------------------*            

Positions:
   0 Na     8.265494    9.592618    8.696571    ( 0.0000,  0.0000,  0.0000)
   1 Na     6.386497    8.073130   11.012448    ( 0.0000,  0.0000,  0.0000)
   2 Na     4.947690    9.964654    8.313268    ( 0.0000,  0.0000,  0.0000)
   3 Na     7.188119    9.806296    5.508044    ( 0.0000,  0.0000,  0.0000)
   4 Na    10.034849    7.805796    6.469204    ( 0.0000,  0.0000,  0.0000)
   5 Na     9.506440    6.703681    9.852502    ( 0.0000,  0.0000,  0.0000)

Unit cell:
           periodic     x           y           z      points  spacing
  1. axis:    no    16.000000    0.000000    0.000000    80     0.2000
  2. axis:    no     0.000000   16.000000    0.000000    80     0.2000
  3. axis:    no     0.000000    0.000000   16.000000    80     0.2000

  Lengths:  16.000000  16.000000  16.000000
  Angles:   90.000000  90.000000  90.000000

Effective grid spacing dv^(1/3) = 0.2000

     iter     time        total  log10-change:
                         energy   eigst   dens
iter:   1 16:43:39    -5.035473   -4.23
iter:   2 16:43:41    -5.035469   -5.15  -3.72
iter:   3 16:43:43    -5.035468c  -5.80  -4.08c
iter:   4 16:43:45    -5.035468c  -6.17  -4.39c
iter:   5 16:43:47    -5.035468c  -6.58  -4.70c
iter:   6 16:43:49    -5.035468c  -6.99  -4.98c
iter:   7 16:43:51    -5.035468c  -7.40c -5.32c

Converged after 7 iterations.

Dipole moment: (-0.091173, -0.101031, -0.029582) |e|*Ang

Energy contributions relative to reference atoms: (reference = -26511.662986)

Kinetic:         +4.786455
Potential:       -4.528184
External:        +0.000000
XC:              -5.109251
Entropy (-ST):   +0.000000
Local:           -0.184488
SIC:             +0.000000
--------------------------
Free energy:     -5.035468
Extrapolated:    -5.035468

 Band  Eigenvalues  Occupancy
    0    -27.94871    2.00000
    1    -27.94721    2.00000
    2    -27.94588    2.00000
    3    -27.94458    2.00000
    4    -27.94236    2.00000
    5    -27.94151    2.00000
    6    -27.94080    2.00000
    7    -27.93959    2.00000
    8    -27.93552    2.00000
    9    -27.93449    2.00000
   10    -27.92627    2.00000
   11    -27.92487    2.00000
   12    -27.91616    2.00000
   13    -27.91501    2.00000
   14    -27.91026    2.00000
   15    -27.90811    2.00000
   16    -27.87819    2.00000
   17    -27.87803    2.00000
   18     -4.09568    2.00000
   19     -2.97382    2.00000
   20     -2.97258    2.00000
   21     -1.85879    0.00000
   22     -1.69800    0.00000
   23     -1.68475    0.00000
   24     -1.34836    0.00000
   25     -0.82153    0.00000
   26     -0.81294    0.00000
   27     -0.42603    0.00000
   28     -0.41301    0.00000
   29     -0.31205    0.00000

Fermi level: -2.41568

Gap: 1.114 eV
Transition (v -> c):
  (s=0, k=0, n=20, [0.00, 0.00, 0.00]) -> (s=0, k=0, n=21, [0.00, 0.00, 0.00])
No difference between direct/indirect transitions

Forces in eV/Ang:
  0 Na    0.00176    0.01422   -0.00789
  1 Na   -0.00543   -0.00092    0.00160
  2 Na    0.00411    0.00069   -0.00363
  3 Na    0.00194   -0.00218    0.00551
  4 Na   -0.00271   -0.00204    0.00259
  5 Na    0.00229   -0.00381    0.00509

System changes: positions 

Initializing position-dependent things.

Density initialized from wave functions
           .--------------------------------------.  
          /|                                      |  
         / |                                      |  
        /  |                                      |  
       /   |                                      |  
      /    |                                      |  
     /     |                                      |  
    /      |                                      |  
   /       |                                      |  
  /        |                                      |  
 *         |                                      |  
 |         |          Na                          |  
 |         |                                      |  
 |         |       Na      NNa                    |  
 |         |                                      |  
 |         |                                      |  
 |         |                                      |  
 |         |             Na   Na                  |  
 |         |                                      |  
 |         |                                      |  
 |         .--------------------------------------.  
 |        /                                      /   
 |       /                                      /    
 |      /                                      /     
 |     /                                      /      
 |    /                                      /       
 |   /                                      /        
 |  /                                      /         
 | /                                      /          
 |/                                      /           
 *--------------------------------------*            

Positions:
   0 Na     8.265571    9.594100    8.694893    ( 0.0000,  0.0000,  0.0000)
   1 Na     6.386668    8.073651   11.010762    ( 0.0000,  0.0000,  0.0000)
   2 Na     4.950389    9.964369    8.312758    ( 0.0000,  0.0000,  0.0000)
   3 Na     7.188949    9.805349    5.510090    ( 0.0000,  0.0000,  0.0000)
   4 Na    10.032820    7.805868    6.471441    ( 0.0000,  0.0000,  0.0000)
   5 Na     9.505502    6.704761    9.852776    ( 0.0000,  0.0000,  0.0000)

Unit cell:
           periodic     x           y           z      points  spacing
  1. axis:    no    16.000000    0.000000    0.000000    80     0.2000
  2. axis:    no     0.000000   16.000000    0.000000    80     0.2000
  3. axis:    no     0.000000    0.000000   16.000000    80     0.2000

  Lengths:  16.000000  16.000000  16.000000
  Angles:   90.000000  90.000000  90.000000

Effective grid spacing dv^(1/3) = 0.2000

     iter     time        total  log10-change:
                         energy   eigst   dens
iter:   1 16:43:53    -5.035542   -3.70
iter:   2 16:43:55    -5.035520   -4.64  -3.40
iter:   3 16:43:57    -5.035518c  -5.25  -3.83
iter:   4 16:43:58    -5.035518c  -5.62  -4.10c
iter:   5 16:44:01    -5.035518c  -5.99  -4.37c
iter:   6 16:44:02    -5.035518c  -6.43  -4.74c
iter:   7 16:44:04    -5.035518c  -6.84  -5.03c
iter:   8 16:44:06    -5.035518c  -7.15  -5.28c
iter:   9 16:44:08    -5.035518c  -7.34  -5.39c
iter:  10 16:44:10    -5.035518c  -7.67c -5.85c

Converged after 10 iterations.

Dipole moment: (-0.091091, -0.100853, -0.029973) |e|*Ang

Energy contributions relative to reference atoms: (reference = -26511.662986)

Kinetic:         +4.821495
Potential:       -4.553865
External:        +0.000000
XC:              -5.118666
Entropy (-ST):   +0.000000
Local:           -0.184482
SIC:             +0.000000
--------------------------
Free energy:     -5.035518
Extrapolated:    -5.035518

 Band  Eigenvalues  Occupancy
    0    -27.94822    2.00000
    1    -27.94675    2.00000
    2    -27.94543    2.00000
    3    -27.94388    2.00000
    4    -27.94187    2.00000
    5    -27.94094    2.00000
    6    -27.94020    2.00000
    7    -27.93885    2.00000
    8    -27.93493    2.00000
    9    -27.93390    2.00000
   10    -27.92564    2.00000
   11    -27.92432    2.00000
   12    -27.91552    2.00000
   13    -27.91436    2.00000
   14    -27.90958    2.00000
   15    -27.90810    2.00000
   16    -27.87823    2.00000
   17    -27.87806    2.00000
   18     -4.09750    2.00000
   19     -2.97421    2.00000
   20     -2.97309    2.00000
   21     -1.85945    0.00000
   22     -1.69739    0.00000
   23     -1.68407    0.00000
   24     -1.34889    0.00000
   25     -0.82175    0.00000
   26     -0.81311    0.00000
   27     -0.42481    0.00000
   28     -0.41197    0.00000
   29     -0.31165    0.00000

Fermi level: -2.41627

Gap: 1.114 eV
Transition (v -> c):
  (s=0, k=0, n=20, [0.00, 0.00, 0.00]) -> (s=0, k=0, n=21, [0.00, 0.00, 0.00])
No difference between direct/indirect transitions

Forces in eV/Ang:
  0 Na    0.00313    0.01444   -0.00482
  1 Na   -0.00575   -0.00119    0.00248
  2 Na    0.00151    0.00116   -0.00349
  3 Na    0.00149   -0.00169    0.00225
  4 Na   -0.00083   -0.00313    0.00128
  5 Na    0.00251   -0.00410    0.00571

System changes: positions 

Initializing position-dependent things.

Density initialized from wave functions
           .--------------------------------------.  
          /|                                      |  
         / |                                      |  
        /  |                                      |  
       /   |                                      |  
      /    |                                      |  
     /     |                                      |  
    /      |                                      |  
   /       |                                      |  
  /        |                                      |  
 *         |                                      |  
 |         |          Na                          |  
 |         |                                      |  
 |         |       Na      NNa                    |  
 |         |                                      |  
 |         |                                      |  
 |         |                                      |  
 |         |             Na   Na                  |  
 |         |                                      |  
 |         |                                      |  
 |         .--------------------------------------.  
 |        /                                      /   
 |       /                                      /    
 |      /                                      /     
 |     /                                      /      
 |    /                                      /       
 |   /                                      /        
 |  /                                      /         
 | /                                      /          
 |/                                      /           
 *--------------------------------------*            

Positions:
   0 Na     8.267446    9.599904    8.692792    ( 0.0000,  0.0000,  0.0000)
   1 Na     6.386509    8.074102   11.007884    ( 0.0000,  0.0000,  0.0000)
   2 Na     4.954675    9.964171    8.311523    ( 0.0000,  0.0000,  0.0000)
   3 Na     7.190111    9.803684    5.512358    ( 0.0000,  0.0000,  0.0000)
   4 Na    10.029419    7.804797    6.475601    ( 0.0000,  0.0000,  0.0000)
   5 Na     9.503916    6.706155    9.854026    ( 0.0000,  0.0000,  0.0000)

Unit cell:
           periodic     x           y           z      points  spacing
  1. axis:    no    16.000000    0.000000    0.000000    80     0.2000
  2. axis:    no     0.000000   16.000000    0.000000    80     0.2000
  3. axis:    no     0.000000    0.000000   16.000000    80     0.2000

  Lengths:  16.000000  16.000000  16.000000
  Angles:   90.000000  90.000000  90.000000

Effective grid spacing dv^(1/3) = 0.2000

     iter     time        total  log10-change:
                         energy   eigst   dens
iter:   1 16:44:12    -5.035685   -3.16
iter:   2 16:44:14    -5.035612   -4.11  -3.14
iter:   3 16:44:15    -5.035608c  -4.68  -3.60
iter:   4 16:44:17    -5.035610c  -5.08  -3.85
iter:   5 16:44:19    -5.035612c  -5.42  -4.07c
iter:   6 16:44:21    -5.035612c  -5.84  -4.56c
iter:   7 16:44:23    -5.035612c  -6.21  -4.78c
iter:   8 16:44:25    -5.035612c  -6.52  -5.07c
iter:   9 16:44:27    -5.035612c  -6.79  -5.17c
iter:  10 16:44:29    -5.035612c  -7.01  -5.33c
iter:  11 16:44:30    -5.035612c  -7.37  -5.86c
iter:  12 16:44:32    -5.035612c  -7.76c -5.81c

Converged after 12 iterations.

Dipole moment: (-0.090856, -0.100192, -0.030675) |e|*Ang

Energy contributions relative to reference atoms: (reference = -26511.662986)

Kinetic:         +4.858536
Potential:       -4.581233
External:        +0.000000
XC:              -5.128426
Entropy (-ST):   +0.000000
Local:           -0.184489
SIC:             +0.000000
--------------------------
Free energy:     -5.035612
Extrapolated:    -5.035612

 Band  Eigenvalues  Occupancy
    0    -27.94761    2.00000
    1    -27.94611    2.00000
    2    -27.94481    2.00000
    3    -27.94275    2.00000
    4    -27.94113    2.00000
    5    -27.94023    2.00000
    6    -27.93912    2.00000
    7    -27.93753    2.00000
    8    -27.93393    2.00000
    9    -27.93290    2.00000
   10    -27.92464    2.00000
   11    -27.92347    2.00000
   12    -27.91463    2.00000
   13    -27.91320    2.00000
   14    -27.90992    2.00000
   15    -27.90848    2.00000
   16    -27.88023    2.00000
   17    -27.88002    2.00000
   18     -4.09972    2.00000
   19     -2.97468    2.00000
   20     -2.97342    2.00000
   21     -1.86171    0.00000
   22     -1.69640    0.00000
   23     -1.68301    0.00000
   24     -1.34918    0.00000
   25     -0.82277    0.00000
   26     -0.81401    0.00000
   27     -0.42295    0.00000
   28     -0.41041    0.00000
   29     -0.31037    0.00000

Fermi level: -2.41756

Gap: 1.112 eV
Transition (v -> c):
  (s=0, k=0, n=20, [0.00, 0.00, 0.00]) -> (s=0, k=0, n=21, [0.00, 0.00, 0.00])
No difference between direct/indirect transitions

Forces in eV/Ang:
  0 Na    0.00419    0.01240   -0.00033
  1 Na   -0.00556   -0.00084    0.00273
  2 Na   -0.00172    0.00179   -0.00293
  3 Na    0.00129   -0.00114   -0.00166
  4 Na    0.00170   -0.00415   -0.00073
  5 Na    0.00231   -0.00341    0.00646

System changes: positions 

Initializing position-dependent things.

Density initialized from wave functions
           .--------------------------------------.  
          /|                                      |  
         / |                                      |  
        /  |                                      |  
       /   |                                      |  
      /    |                                      |  
     /     |                                      |  
    /      |                                      |  
   /       |                                      |  
  /        |                                      |  
 *         |                                      |  
 |         |          Na                          |  
 |         |                                      |  
 |         |       Na      NNa                    |  
 |         |                                      |  
 |         |                                      |  
 |         |                                      |  
 |         |             Na   Na                  |  
 |         |                                      |  
 |         |                                      |  
 |         .--------------------------------------.  
 |        /                                      /   
 |       /                                      /    
 |      /                                      /     
 |     /                                      /      
 |    /                                      /       
 |   /                                      /        
 |  /                                      /         
 | /                                      /          
 |/                                      /           
 *--------------------------------------*            

Positions:
   0 Na     8.272249    9.611605    8.691371    ( 0.0000,  0.0000,  0.0000)
   1 Na     6.385737    8.074073   11.004240    ( 0.0000,  0.0000,  0.0000)
   2 Na     4.959531    9.964331    8.309506    ( 0.0000,  0.0000,  0.0000)
   3 Na     7.191200    9.801549    5.513382    ( 0.0000,  0.0000,  0.0000)
   4 Na    10.025291    7.801784    6.481258    ( 0.0000,  0.0000,  0.0000)
   5 Na     9.501905    6.707342    9.856649    ( 0.0000,  0.0000,  0.0000)

Unit cell:
           periodic     x           y           z      points  spacing
  1. axis:    no    16.000000    0.000000    0.000000    80     0.2000
  2. axis:    no     0.000000   16.000000    0.000000    80     0.2000
  3. axis:    no     0.000000    0.000000   16.000000    80     0.2000

  Lengths:  16.000000  16.000000  16.000000
  Angles:   90.000000  90.000000  90.000000

Effective grid spacing dv^(1/3) = 0.2000

     iter     time        total  log10-change:
                         energy   eigst   dens
iter:   1 16:44:35    -5.035839   -2.78
iter:   2 16:44:36    -5.035720   -3.71  -3.00
iter:   3 16:44:39    -5.035718c  -4.28  -3.45
iter:   4 16:44:41    -5.035725c  -4.72  -3.68
iter:   5 16:44:43    -5.035728c  -5.04  -3.90
iter:   6 16:44:45    -5.035729c  -5.45  -4.43c
iter:   7 16:44:47    -5.035729c  -5.76  -4.59c
iter:   8 16:44:48    -5.035730c  -6.07  -4.89c
iter:   9 16:44:50    -5.035730c  -6.40  -5.03c
iter:  10 16:44:52    -5.035730c  -6.67  -5.12c
iter:  11 16:44:54    -5.035730c  -7.07  -5.50c
iter:  12 16:44:56    -5.035730c  -7.30  -5.41c
iter:  13 16:44:58    -5.035730c  -7.60c -5.71c

Converged after 13 iterations.

Dipole moment: (-0.090417, -0.098885, -0.031547) |e|*Ang

Energy contributions relative to reference atoms: (reference = -26511.662986)

Kinetic:         +4.865959
Potential:       -4.586262
External:        +0.000000
XC:              -5.130916
Entropy (-ST):   +0.000000
Local:           -0.184510
SIC:             +0.000000
--------------------------
Free energy:     -5.035730
Extrapolated:    -5.035730

 Band  Eigenvalues  Occupancy
    0    -27.94757    2.00000
    1    -27.94576    2.00000
    2    -27.94446    2.00000
    3    -27.94169    2.00000
    4    -27.94047    2.00000
    5    -27.93988    2.00000
    6    -27.93778    2.00000
    7    -27.93595    2.00000
    8    -27.93287    2.00000
    9    -27.93184    2.00000
   10    -27.92367    2.00000
   11    -27.92266    2.00000
   12    -27.91469    2.00000
   13    -27.91397    2.00000
   14    -27.91181    2.00000
   15    -27.90732    2.00000
   16    -27.88552    2.00000
   17    -27.88523    2.00000
   18     -4.10133    2.00000
   19     -2.97528    2.00000
   20     -2.97286    2.00000
   21     -1.86613    0.00000
   22     -1.69525    0.00000
   23     -1.68190    0.00000
   24     -1.34876    0.00000
   25     -0.82502    0.00000
   26     -0.81599    0.00000
   27     -0.42096    0.00000
   28     -0.40884    0.00000
   29     -0.30811    0.00000

Fermi level: -2.41949

Gap: 1.107 eV
Transition (v -> c):
  (s=0, k=0, n=20, [0.00, 0.00, 0.00]) -> (s=0, k=0, n=21, [0.00, 0.00, 0.00])
No difference between direct/indirect transitions

Forces in eV/Ang:
  0 Na    0.00363    0.00660    0.00386
  1 Na   -0.00440    0.00069    0.00148
  2 Na   -0.00396    0.00236   -0.00187
  3 Na    0.00180   -0.00093   -0.00401
  4 Na    0.00413   -0.00447   -0.00331
  5 Na    0.00143   -0.00112    0.00697

Timing:                                      incl.     excl.
-------------------------------------------------------------------
Density initialized from wave functions:     0.320     0.320   0.1% |
 Symmetrize density:                         0.000     0.000   0.0% |
Forces:                                      2.960     2.960   0.9% |
Hamiltonian:                                 8.726     0.000   0.0% |
 Atomic:                                     0.846     0.004   0.0% |
  XC Correction:                             0.842     0.842   0.2% |
 Calculate atomic Hamiltonians:              0.057     0.057   0.0% |
 Communicate:                                0.000     0.000   0.0% |
 Hartree integrate/restrict:                 0.169     0.169   0.1% |
 Initialize Hamiltonian:                     0.000     0.000   0.0% |
 Poisson:                                    2.430     0.099   0.0% |
  Communicate from 1D:                       0.286     0.286   0.1% |
  Communicate from 2D:                       0.290     0.290   0.1% |
  Communicate to 1D:                         0.295     0.295   0.1% |
  Communicate to 2D:                         0.287     0.287   0.1% |
  FFT 1D:                                    0.333     0.333   0.1% |
  FFT 2D:                                    0.841     0.841   0.2% |
 XC 3D grid:                                 5.191     5.191   1.5% ||
 vbar:                                       0.033     0.033   0.0% |
LCAO initialization:                         0.086     0.011   0.0% |
 LCAO eigensolver:                           0.020     0.000   0.0% |
  Calculate projections:                     0.000     0.000   0.0% |
  DenseAtomicCorrection:                     0.000     0.000   0.0% |
  Distribute overlap matrix:                 0.000     0.000   0.0% |
  Orbital Layouts:                           0.000     0.000   0.0% |
  Potential matrix:                          0.020     0.020   0.0% |
 LCAO to grid:                               0.051     0.051   0.0% |
 Set positions (LCAO WFS):                   0.005     0.001   0.0% |
  Basic WFS set positions:                   0.000     0.000   0.0% |
  Basis functions set positions:             0.000     0.000   0.0% |
  P tci:                                     0.003     0.003   0.0% |
  ST tci:                                    0.001     0.001   0.0% |
  mktci:                                     0.000     0.000   0.0% |
Redistribute:                                0.003     0.003   0.0% |
SCF-cycle:                                 321.895     0.083   0.0% |
 Davidson:                                 224.446    81.435  24.1% |---------|
  Apply hamiltonian:                        24.099    24.099   7.1% |--|
  Subspace diag:                            31.379     0.006   0.0% |
   calc_h_matrix:                           25.803     3.533   1.0% |
    Apply hamiltonian:                      22.270    22.270   6.6% |--|
   diagonalize:                              0.027     0.027   0.0% |
   rotate_psi:                               5.543     5.543   1.6% ||
  calc. matrices:                           76.923    31.213   9.3% |---|
   Apply hamiltonian:                       45.709    45.709  13.6% |----|
  diagonalize:                               0.207     0.207   0.1% |
  rotate_psi:                               10.403    10.403   3.1% ||
 Density:                                    3.977     0.001   0.0% |
  Atomic density matrices:                   0.042     0.042   0.0% |
  Mix:                                       3.230     3.230   1.0% |
  Multipole moments:                         0.009     0.009   0.0% |
  Pseudo density:                            0.695     0.694   0.2% |
   Symmetrize density:                       0.000     0.000   0.0% |
 Hamiltonian:                               92.673     0.004   0.0% |
  Atomic:                                    8.740     0.040   0.0% |
   XC Correction:                            8.700     8.700   2.6% ||
  Calculate atomic Hamiltonians:             0.605     0.605   0.2% |
  Communicate:                               0.000     0.000   0.0% |
  Hartree integrate/restrict:                1.778     1.778   0.5% |
  Poisson:                                  25.813     1.050   0.3% |
   Communicate from 1D:                      3.005     3.005   0.9% |
   Communicate from 2D:                      3.066     3.066   0.9% |
   Communicate to 1D:                        3.046     3.046   0.9% |
   Communicate to 2D:                        3.058     3.058   0.9% |
   FFT 1D:                                   3.550     3.550   1.1% |
   FFT 2D:                                   9.038     9.038   2.7% ||
  XC 3D grid:                               55.405    55.405  16.4% |------|
  vbar:                                      0.329     0.329   0.1% |
 Orthonormalize:                             0.716     0.001   0.0% |
  calc_s_matrix:                             0.214     0.214   0.1% |
  inverse-cholesky:                          0.001     0.001   0.0% |
  projections:                               0.215     0.215   0.1% |
  rotate_psi_s:                              0.285     0.285   0.1% |
Set symmetry:                                0.000     0.000   0.0% |
Other:                                       3.239     3.239   1.0% |
-------------------------------------------------------------------
Total:                                               337.229 100.0%

Memory usage: 1.94 GiB
Date: Sun Feb 16 16:44:58 2025
