6
Lattice="16.0 0.0 0.0 0.0 16.0 0.0 0.0 0.0 16.0" Properties=species:S:1:pos:R:3:magmoms:R:1:forces:R:3 energy=-4.254843983857587 free_energy=-4.254843983857587 dipole="-0.06540150769851537 -0.10432070430790734 -0.04341944774157853" magmom=0.0 pbc="F F F"
Na       8.22488033       9.52627557       8.66314971       0.00000000      -0.00056365       0.00927301       0.00309696
Na       6.39015251       8.07778230      11.02609264       0.00000000       0.00037649      -0.00230589      -0.00097042
Na       4.94531784       9.98719669       8.33122271       0.00000000       0.00479798      -0.00130221      -0.00079241
Na       7.20048569       9.82376797       5.51756122       0.00000000      -0.00339332      -0.00077185       0.00582202
Na      10.03679164       7.81006912       6.47396549       0.00000000      -0.00160462      -0.00271059      -0.00041932
Na       9.52353065       6.71953712       9.87364551       0.00000000      -0.00247242       0.00003258       0.00151589
