6
Lattice="16.0 0.0 0.0 0.0 16.0 0.0 0.0 0.0 16.0" Properties=species:S:1:pos:R:3:magmoms:R:1:forces:R:3 energy=-5.035729680428831 free_energy=-5.035729680428831 dipole="-0.09037187683666308 -0.09884229641835827 -0.03151897504598236" magmom=0.0 pbc="F F F"
Na       8.27224860       9.61160535       8.69137125       0.00000000       0.00361524       0.00658691       0.00384282
Na       6.38573744       8.07407331      11.00423990       0.00000000      -0.00439042       0.00068865       0.00145924
Na       4.95953068       9.96433122       8.30950607       0.00000000      -0.00393522       0.00233384      -0.00190653
Na       7.19119987       9.80154859       5.51338160       0.00000000       0.00177697      -0.00095759      -0.00397277
Na      10.02529138       7.80178359       6.48125788       0.00000000       0.00411263      -0.00448475      -0.00330032
Na       9.50190544       6.70734222       9.85664899       0.00000000       0.00139249      -0.00111983       0.00693677
