
  ___ ___ ___ _ _ _  
 |   |   |_  | | | | 
 | | | | | . | | | | 
 |__ |  _|___|_____|  25.1.0
 |___|_|             

User:   zoe@dhcp-140-47.vpn.chalmers.se
Date:   Sun Feb 16 16:19:55 2025
Arch:   arm64
Pid:    56586
CWD:    /Users/zoe/Documents/GitHub/TIF320_Computitional_Metrials_and_Molecular_Physics
Python: 3.12.2
gpaw:   /opt/anaconda3/envs/tif320env/lib/python3.12/site-packages/gpaw
_gpaw:  /opt/anaconda3/envs/tif320env/lib/python3.12/site-packages/
        _gpaw.cpython-312-darwin.so
ase:    /opt/anaconda3/envs/tif320env/lib/python3.12/site-packages/ase (version 3.24.0)
numpy:  /opt/anaconda3/envs/tif320env/lib/python3.12/site-packages/numpy (version 2.0.1)
scipy:  /opt/anaconda3/envs/tif320env/lib/python3.12/site-packages/scipy (version 1.15.1)
libxc:  7.0.0
units:  Angstrom and eV
cores: 1
OpenMP: False
OMP_NUM_THREADS: 1

Input parameters:
  mode: fd
  xc: PBE

System changes: positions, numbers, cell, pbc, initial_charges, initial_magmoms 

Initialize ...

species:
  Na:
    name: Sodium
    id: d7ecbc49209718622bcbe287195dca2a
    Z: 11.0
    valence: 7
    core: 4
    charge: 0.0
    file: /opt/anaconda3/envs/tif320env/gpaw-setups/gpaw-setups-24.11.0/Na.PBE.gz
    compensation charges: {type: gauss,
                           rc: 0.37,
                           lmax: 2}
    cutoffs: {filter: 2.17,
              core: 2.59}
    projectors:
      #              energy  rcut
      - 3s(1.00)    -2.744   1.201
      - 2p(6.00)   -28.672   1.217
      - 3p(0.00)    -0.743   1.217
      -  s          24.468   1.201
      -  d           0.000   1.238
  
    # Using partial waves for Na as LCAO basis

Reference energy: -26511.662986  # eV

Spin-paired calculation

Convergence criteria:
 Maximum [total energy] change in last 3 cyles: 0.0005 eV / valence electron
 Maximum integral of absolute [dens]ity change: 0.0001 electrons / valence electron
 Maximum integral of absolute [eigenst]ate change: 4e-08 eV^2 / valence electron
 Maximum number of scf [iter]ations: 333
 (Square brackets indicate name in SCF output, whereas a 'c' in
 the SCF output indicates the quantity has converged.)

Symmetries present (total): 1

  ( 1  0  0)
  ( 0  1  0)
  ( 0  0  1)

1 k-point (Gamma)
1 k-point in the irreducible part of the Brillouin zone
       k-points in crystal coordinates                weights
   0:     0.00000000    0.00000000    0.00000000          1/1

Wave functions: Uniform real-space grid
  Kinetic energy operator: 6*3+1=19 point O(h^6) finite-difference Laplacian
  ScaLapack parameters: grid=1x1, blocksize=None
  Wavefunction extrapolation:
    Improved wavefunction reuse through dual PAW basis 

Occupation numbers: # Zero width 

Eigensolver
   Davidson(niter=2) 

Densities:
  Coarse grid: 80*80*80 grid
  Fine grid: 160*160*160 grid
  Total Charge: 0.000000 

Density mixing:
  Method: separate
  Backend: pulay
  Linear mixing parameter: 0.25
  old densities: 3
  Damping of long wavelength oscillations: 1  # (no daming) 

Hamiltonian:
  XC and Coulomb potentials evaluated on a 160*160*160 grid
  Using the PBE Exchange-Correlation functional
  Interpolation: tri-quintic (5. degree polynomial)
  Poisson solver: FastPoissonSolver using
    Stencil: 6*3+1=19 point O(h^6) finite-difference Laplacian
    FFT axes: []
    FST axes: [np.int64(0), np.int64(1), np.int64(2)]
 

XC parameters: PBE with 2 nearest neighbor stencil

Memory estimate:
  Process memory now: 1855.53 MiB
  Calculator: 463.55 MiB
    Density: 148.73 MiB
      Arrays: 99.53 MiB
      Localized functions: 26.63 MiB
      Mixer: 22.57 MiB
    Hamiltonian: 67.06 MiB
      Arrays: 65.10 MiB
      XC: 0.00 MiB
      Poisson: 0.00 MiB
      vbar: 1.96 MiB
    Wavefunctions: 247.77 MiB
      Arrays psit_nG: 112.85 MiB
      Eigensolver: 131.73 MiB
      Projections: 0.02 MiB
      Projectors: 3.18 MiB

Total number of cores used: 1

Number of atoms: 6
Number of atomic orbitals: 42
Number of bands in calculation: 30
Number of valence electrons: 42
Bands to converge: occupied

... initialized

Initializing position-dependent things.

Density initialized from atomic densities
Creating initial wave functions:
  30 bands from LCAO basis set

           .--------------------------------------.  
          /|                                      |  
         / |                                      |  
        /  |                                      |  
       /   |                                      |  
      /    |                                      |  
     /     |                                      |  
    /      |                                      |  
   /       |                                      |  
  /        |                                      |  
 *         |                                      |  
 |         |          Na                          |  
 |         |                                      |  
 |         |       Na      NNa                    |  
 |         |                                      |  
 |         |                                      |  
 |         |                                      |  
 |         |             Na   Na                  |  
 |         |                                      |  
 |         |                                      |  
 |         .--------------------------------------.  
 |        /                                      /   
 |       /                                      /    
 |      /                                      /     
 |     /                                      /      
 |    /                                      /       
 |   /                                      /        
 |  /                                      /         
 | /                                      /          
 |/                                      /           
 *--------------------------------------*            

Positions:
   0 Na     8.272249    9.611605    8.691371    ( 0.0000,  0.0000,  0.0000)
   1 Na     6.385737    8.074073   11.004240    ( 0.0000,  0.0000,  0.0000)
   2 Na     4.959531    9.964331    8.309506    ( 0.0000,  0.0000,  0.0000)
   3 Na     7.191200    9.801549    5.513382    ( 0.0000,  0.0000,  0.0000)
   4 Na    10.025291    7.801784    6.481258    ( 0.0000,  0.0000,  0.0000)
   5 Na     9.501905    6.707342    9.856649    ( 0.0000,  0.0000,  0.0000)

Unit cell:
           periodic     x           y           z      points  spacing
  1. axis:    no    16.000000    0.000000    0.000000    80     0.2000
  2. axis:    no     0.000000   16.000000    0.000000    80     0.2000
  3. axis:    no     0.000000    0.000000   16.000000    80     0.2000

  Lengths:  16.000000  16.000000  16.000000
  Angles:   90.000000  90.000000  90.000000

Effective grid spacing dv^(1/3) = 0.2000

     iter     time        total  log10-change:
                         energy   eigst   dens
iter:   1 16:19:58    -5.101636
iter:   2 16:20:00    -4.983077   -0.48  -1.30
iter:   3 16:20:03    -4.998007   -0.43  -1.51
iter:   4 16:20:05    -5.020382   -0.83  -1.90
iter:   5 16:20:07    -5.029608   -1.20  -2.27
iter:   6 16:20:09    -5.032607c  -1.59  -2.48
iter:   7 16:20:11    -5.033962c  -1.98  -2.61
iter:   8 16:20:13    -5.034766c  -2.29  -2.96
iter:   9 16:20:15    -5.035243c  -2.58  -3.03
iter:  10 16:20:17    -5.035470c  -2.86  -3.28
iter:  11 16:20:19    -5.035599c  -3.11  -3.45
iter:  12 16:20:21    -5.035660c  -3.40  -3.94
iter:  13 16:20:23    -5.035692c  -3.69  -3.99
iter:  14 16:20:25    -5.035709c  -4.04  -4.04c
iter:  15 16:20:27    -5.035718c  -4.32  -4.41c
iter:  16 16:20:29    -5.035723c  -4.59  -4.42c
iter:  17 16:20:32    -5.035726c  -4.85  -4.40c
iter:  18 16:20:34    -5.035728c  -5.05  -4.26c
iter:  19 16:20:36    -5.035729c  -5.30  -4.29c
iter:  20 16:20:39    -5.035729c  -5.57  -4.16c
iter:  21 16:20:41    -5.035729c  -5.82  -4.26c
iter:  22 16:20:44    -5.035729c  -6.08  -4.67c
iter:  23 16:20:47    -5.035730c  -6.35  -4.87c
iter:  24 16:20:50    -5.035730c  -6.65  -5.08c
iter:  25 16:20:52    -5.035730c  -6.89  -5.19c
iter:  26 16:20:55    -5.035730c  -7.13  -5.41c
iter:  27 16:20:57    -5.035730c  -7.36  -5.64c
iter:  28 16:21:00    -5.035730c  -7.61c -5.61c

Converged after 28 iterations.

Dipole moment: (-0.090372, -0.098842, -0.031519) |e|*Ang

Energy contributions relative to reference atoms: (reference = -26511.662986)

Kinetic:         +4.866176
Potential:       -4.586349
External:        +0.000000
XC:              -5.131031
Entropy (-ST):   +0.000000
Local:           -0.184526
SIC:             +0.000000
--------------------------
Free energy:     -5.035730
Extrapolated:    -5.035730

 Band  Eigenvalues  Occupancy
    0    -27.94750    2.00000
    1    -27.94568    2.00000
    2    -27.94440    2.00000
    3    -27.94163    2.00000
    4    -27.94038    2.00000
    5    -27.93981    2.00000
    6    -27.93774    2.00000
    7    -27.93590    2.00000
    8    -27.93281    2.00000
    9    -27.93178    2.00000
   10    -27.92361    2.00000
   11    -27.92259    2.00000
   12    -27.91461    2.00000
   13    -27.91389    2.00000
   14    -27.91176    2.00000
   15    -27.90726    2.00000
   16    -27.88544    2.00000
   17    -27.88515    2.00000
   18     -4.10126    2.00000
   19     -2.97522    2.00000
   20     -2.97281    2.00000
   21     -1.86608    0.00000
   22     -1.69521    0.00000
   23     -1.68185    0.00000
   24     -1.34870    0.00000
   25     -0.82485    0.00000
   26     -0.81563    0.00000
   27     -0.42020    0.00000
   28     -0.40552    0.00000
   29     -0.30075    0.00000

Fermi level: -2.41945

Gap: 1.107 eV
Transition (v -> c):
  (s=0, k=0, n=20, [0.00, 0.00, 0.00]) -> (s=0, k=0, n=21, [0.00, 0.00, 0.00])
No difference between direct/indirect transitions

Forces in eV/Ang:
  0 Na    0.00362    0.00659    0.00384
  1 Na   -0.00439    0.00069    0.00146
  2 Na   -0.00394    0.00233   -0.00191
  3 Na    0.00178   -0.00096   -0.00397
  4 Na    0.00411   -0.00448   -0.00330
  5 Na    0.00139   -0.00112    0.00694

Timing:                              incl.     excl.
-----------------------------------------------------------
Forces:                              0.289     0.289   0.4% |
Hamiltonian:                         0.585     0.000   0.0% |
 Atomic:                             0.057     0.000   0.0% |
  XC Correction:                     0.057     0.057   0.1% |
 Calculate atomic Hamiltonians:      0.004     0.004   0.0% |
 Communicate:                        0.000     0.000   0.0% |
 Hartree integrate/restrict:         0.012     0.012   0.0% |
 Initialize Hamiltonian:             0.001     0.001   0.0% |
 Poisson:                            0.166     0.007   0.0% |
  Communicate from 1D:               0.019     0.019   0.0% |
  Communicate from 2D:               0.019     0.019   0.0% |
  Communicate to 1D:                 0.019     0.019   0.0% |
  Communicate to 2D:                 0.019     0.019   0.0% |
  FFT 1D:                            0.023     0.023   0.0% |
  FFT 2D:                            0.059     0.059   0.1% |
 XC 3D grid:                         0.342     0.342   0.5% |
 vbar:                               0.003     0.003   0.0% |
LCAO initialization:                 0.105     0.026   0.0% |
 LCAO eigensolver:                   0.021     0.000   0.0% |
  Calculate projections:             0.000     0.000   0.0% |
  DenseAtomicCorrection:             0.000     0.000   0.0% |
  Distribute overlap matrix:         0.000     0.000   0.0% |
  Orbital Layouts:                   0.000     0.000   0.0% |
  Potential matrix:                  0.021     0.021   0.0% |
 LCAO to grid:                       0.053     0.053   0.1% |
 Set positions (LCAO WFS):           0.005     0.001   0.0% |
  Basic WFS set positions:           0.000     0.000   0.0% |
  Basis functions set positions:     0.000     0.000   0.0% |
  P tci:                             0.003     0.003   0.0% |
  ST tci:                            0.001     0.001   0.0% |
  mktci:                             0.000     0.000   0.0% |
SCF-cycle:                          63.210     0.010   0.0% |
 Davidson:                          43.552    15.669  24.0% |---------|
  Apply hamiltonian:                 4.549     4.549   7.0% |--|
  Subspace diag:                     5.888     0.001   0.0% |
   calc_h_matrix:                    4.727     0.707   1.1% |
    Apply hamiltonian:               4.020     4.020   6.1% |-|
   diagonalize:                      0.005     0.005   0.0% |
   rotate_psi:                       1.155     1.155   1.8% ||
  calc. matrices:                   15.232     6.834  10.5% |---|
   Apply hamiltonian:                8.398     8.398  12.8% |----|
  diagonalize:                       0.040     0.040   0.1% |
  rotate_psi:                        2.174     2.174   3.3% ||
 Density:                            0.849     0.000   0.0% |
  Atomic density matrices:           0.009     0.009   0.0% |
  Mix:                               0.686     0.686   1.0% |
  Multipole moments:                 0.002     0.002   0.0% |
  Pseudo density:                    0.152     0.152   0.2% |
   Symmetrize density:               0.000     0.000   0.0% |
 Hamiltonian:                       18.741     0.001   0.0% |
  Atomic:                            1.916     0.009   0.0% |
   XC Correction:                    1.907     1.907   2.9% ||
  Calculate atomic Hamiltonians:     0.119     0.119   0.2% |
  Communicate:                       0.000     0.000   0.0% |
  Hartree integrate/restrict:        0.353     0.353   0.5% |
  Poisson:                           5.268     0.227   0.3% |
   Communicate from 1D:              0.594     0.594   0.9% |
   Communicate from 2D:              0.647     0.647   1.0% |
   Communicate to 1D:                0.646     0.646   1.0% |
   Communicate to 2D:                0.586     0.586   0.9% |
   FFT 1D:                           0.702     0.702   1.1% |
   FFT 2D:                           1.867     1.867   2.9% ||
  XC 3D grid:                       11.025    11.025  16.9% |------|
  vbar:                              0.059     0.059   0.1% |
 Orthonormalize:                     0.057     0.000   0.0% |
  calc_s_matrix:                     0.015     0.015   0.0% |
  inverse-cholesky:                  0.000     0.000   0.0% |
  projections:                       0.014     0.014   0.0% |
  rotate_psi_s:                      0.028     0.028   0.0% |
Set symmetry:                        0.000     0.000   0.0% |
Other:                               1.186     1.186   1.8% ||
-----------------------------------------------------------
Total:                                        65.374 100.0%

Memory usage: 1.81 GiB
Date: Sun Feb 16 16:21:00 2025
