
  ___ ___ ___ _ _ _  
 |   |   |_  | | | | 
 | | | | | . | | | | 
 |__ |  _|___|_____|  25.1.0
 |___|_|             

User:   zoe@Zoes-MacBook-Air.local
Date:   Mon Feb 17 19:34:47 2025
Arch:   arm64
Pid:    70037
CWD:    /Users/zoe/Documents/GitHub/TIF320_Computitional_Materials_and_Molecular_Physics
Python: 3.12.2
gpaw:   /opt/anaconda3/envs/tif320env/lib/python3.12/site-packages/gpaw
_gpaw:  /opt/anaconda3/envs/tif320env/lib/python3.12/site-packages/
        _gpaw.cpython-312-darwin.so
ase:    /opt/anaconda3/envs/tif320env/lib/python3.12/site-packages/ase (version 3.24.0)
numpy:  /opt/anaconda3/envs/tif320env/lib/python3.12/site-packages/numpy (version 2.0.1)
scipy:  /opt/anaconda3/envs/tif320env/lib/python3.12/site-packages/scipy (version 1.15.1)
libxc:  7.0.0
units:  Angstrom and eV
cores: 1
OpenMP: False
OMP_NUM_THREADS: 1

Input parameters:
  mode: {ecut: 450.00000000000006,
         name: pw}
  nbands: 28
  setups: {Na: 1}
  spinpol: False
  symmetry: off
  xc: PBE

System changes: positions, numbers, cell, pbc, initial_charges, initial_magmoms 

Initialize ...

species:
  Na:
    name: Sodium
    id: 8dbce52902f3add137ce7d12431c9cac
    Z: 11.0
    valence: 1
    core: 10
    charge: 0.0
    file: /opt/anaconda3/envs/tif320env/gpaw-setups/gpaw-setups-24.11.0/Na.1.PBE.gz
    compensation charges: {type: gauss,
                           rc: 0.43,
                           lmax: 2}
    cutoffs: {filter: 2.36,
              core: 3.60}
    projectors:
      #              energy  rcut
      - 3s(1.00)    -2.744   1.349
      - 3p(0.00)    -0.743   1.349
      -  s          24.468   1.349
  
    # Using partial waves for Na as LCAO basis

Reference energy: -26511.662975  # eV

Spin-paired calculation

Convergence criteria:
 Maximum [total energy] change in last 3 cyles: 0.0005 eV / valence electron
 Maximum integral of absolute [dens]ity change: 0.0001 electrons / valence electron
 Maximum integral of absolute [eigenst]ate change: 4e-08 eV^2 / valence electron
 Maximum number of scf [iter]ations: 333
 (Square brackets indicate name in SCF output, whereas a 'c' in
 the SCF output indicates the quantity has converged.)

Symmetries present (total): 1

  ( 1  0  0)
  ( 0  1  0)
  ( 0  0  1)

1 k-point (Gamma)
1 k-point in the irreducible part of the Brillouin zone
       k-points in crystal coordinates                weights
   0:     0.00000000    0.00000000    0.00000000          1/1

Wave functions: Plane wave expansion
  Cutoff energy: 450.000 eV
  Number of coefficients: 88663 (reduced to 44332)
  Pulay-stress correction: 0.000000 eV/Ang^3 (de/decut=0.000000)
  Using Numpy's FFT
  ScaLapack parameters: grid=1x1, blocksize=None
  Wavefunction extrapolation:
    Improved wavefunction reuse through dual PAW basis 

Occupation numbers: # Zero width 

Eigensolver
   Davidson(niter=2) 

Densities:
  Coarse grid: 80*80*80 grid
  Fine grid: 160*160*160 grid
  Total Charge: 0.000000 

Density mixing:
  Method: separate
  Backend: pulay
  Linear mixing parameter: 0.05
  old densities: 5
  Damping of long wavelength oscillations: 50 

Hamiltonian:
  XC and Coulomb potentials evaluated on a 160*160*160 grid
  Using the PBE Exchange-Correlation functional
  External potential:
    NoExternalPotential
 

XC parameters: PBE with 2 nearest neighbor stencil

Memory estimate:
  Process memory now: 318.73 MiB
  Calculator: 357.13 MiB
    Density: 234.52 MiB
      Arrays: 101.56 MiB
      Localized functions: 93.89 MiB
      Mixer: 39.06 MiB
    Hamiltonian: 68.32 MiB
      Arrays: 66.41 MiB
      XC: 0.00 MiB
      Poisson: 0.00 MiB
      vbar: 1.92 MiB
    Wavefunctions: 54.29 MiB
      Arrays psit_nG: 18.94 MiB
      Eigensolver: 22.38 MiB
      Projections: 0.01 MiB
      Projectors: 2.37 MiB
      PW-descriptor: 10.59 MiB

Total number of cores used: 1

Number of atoms: 6
Number of atomic orbitals: 24
Number of bands in calculation: 28
Number of valence electrons: 6
Bands to converge: occupied

... initialized

Initializing position-dependent things.

Density initialized from atomic densities
Creating initial wave functions:
  24 bands from LCAO basis set
  4 bands from random numbers

           .--------------------------------------.  
          /|                                      |  
         / |                                      |  
        /  |                                      |  
       /   |                                      |  
      /    |                                      |  
     /     |                                      |  
    /      |                                      |  
   /       |                                      |  
  /        |                                      |  
 *         |                                      |  
 |         |                                      |  
 |         |                                      |  
 |         |                                      |  
 |         |     Na                               |  
 |         |            Na     Na                 |  
 |         |          Na                          |  
 |         |                  Na                  |  
 |         |                Na                    |  
 |         |                                      |  
 |         .--------------------------------------.  
 |        /                                      /   
 |       /                                      /    
 |      /                                      /     
 |     /                                      /      
 |    /                                      /       
 |   /                                      /        
 |  /                                      /         
 | /                                      /          
 |/                                      /           
 *--------------------------------------*            

Positions:
   0 Na     6.651684   10.369658    7.188865    ( 0.0000,  0.0000,  0.0000)
   1 Na     9.529007    8.688416    5.994811    ( 0.0000,  0.0000,  0.0000)
   2 Na     9.112434   11.946421    5.662676    ( 0.0000,  0.0000,  0.0000)
   3 Na     4.352978    8.527954    8.672239    ( 0.0000,  0.0000,  0.0000)
   4 Na     7.015449    6.878244    7.670255    ( 0.0000,  0.0000,  0.0000)
   5 Na     9.736387    5.447202    6.506355    ( 0.0000,  0.0000,  0.0000)

Unit cell:
           periodic     x           y           z      points  spacing
  1. axis:    no    16.000000    0.000000    0.000000    80     0.2000
  2. axis:    no     0.000000   16.000000    0.000000    80     0.2000
  3. axis:    no     0.000000    0.000000   16.000000    80     0.2000

  Lengths:  16.000000  16.000000  16.000000
  Angles:   90.000000  90.000000  90.000000

Effective grid spacing dv^(1/3) = 0.2000

     iter     time        total  log10-change:
                         energy   eigst   dens
iter:   1 19:34:49    -4.938609
iter:   2 19:34:51    -4.929534   -1.53  -0.49
iter:   3 19:34:52    -4.835545   -2.12  -0.53
iter:   4 19:34:54    -4.831576   -2.81  -0.87
iter:   5 19:34:55    -4.829193   -2.96  -0.91
iter:   6 19:34:57    -4.829378c  -3.87  -1.61
iter:   7 19:34:58    -4.829549c  -4.53  -1.72
iter:   8 19:34:59    -4.829755c  -4.68  -1.86
iter:   9 19:35:01    -4.829792c  -5.38  -2.33
iter:  10 19:35:02    -4.829807c  -5.92  -2.60
iter:  11 19:35:04    -4.829808c  -6.68  -2.73
iter:  12 19:35:05    -4.829812c  -6.67  -2.76
iter:  13 19:35:07    -4.829812c  -7.52c -2.94
iter:  14 19:35:08    -4.829812c  -7.93c -2.98
iter:  15 19:35:10    -4.829812c  -6.91  -3.03
iter:  16 19:35:12    -4.829812c  -8.18c -3.71
iter:  17 19:35:13    -4.829812c  -9.09c -3.74
iter:  18 19:35:15    -4.829812c  -8.72c -3.77
iter:  19 19:35:16    -4.829812c  -9.36c -4.12c

Converged after 19 iterations.

Dipole moment: (-0.024712, 0.012145, 0.002661) |e|*Ang

Energy contributions relative to reference atoms: (reference = -26511.662975)

Kinetic:        +11.789178
Potential:      -10.744321
External:        +0.000000
XC:              -5.875780
Entropy (-ST):   +0.000000
Local:           +0.001111
SIC:             +0.000000
--------------------------
Free energy:     -4.829812
Extrapolated:    -4.829812

 Band  Eigenvalues  Occupancy
    0     -3.90271    2.00000
    1     -2.90567    2.00000
    2     -2.90137    2.00000
    3     -1.66858    0.00000
    4     -1.53783    0.00000
    5     -1.51531    0.00000
    6     -1.33380    0.00000
    7     -0.59562    0.00000
    8     -0.57368    0.00000
    9     -0.54181    0.00000
   10     -0.49865    0.00000
   11     -0.37587    0.00000
   12     -0.21433    0.00000
   13     -0.06826    0.00000
   14      0.29835    0.00000
   15      0.31580    0.00000
   16      0.39756    0.00000
   17      0.44246    0.00000
   18      0.47579    0.00000
   19      0.59164    0.00000
   20      0.62585    0.00000
   21      0.65599    0.00000
   22      0.71559    0.00000
   23      0.77469    0.00000
   24      0.86450    0.00000
   25      0.89718    0.00000
   26      0.97329    0.00000
   27      1.04735    0.00000

Fermi level: -2.28498

Gap: 1.233 eV
Transition (v -> c):
  (s=0, k=0, n=2, [0.00, 0.00, 0.00]) -> (s=0, k=0, n=3, [0.00, 0.00, 0.00])
No difference between direct/indirect transitions
Writing to ./A2/task10_Na6_wavefunctions.gpw (mode='all')

Timing:                              incl.     excl.
-----------------------------------------------------------
Hamiltonian:                         0.577     0.006   0.0% |
 Atomic:                             0.039     0.000   0.0% |
  XC Correction:                     0.038     0.038   0.0% |
 Calculate atomic Hamiltonians:      0.119     0.119   0.1% |
 Communicate:                        0.000     0.000   0.0% |
 Initialize Hamiltonian:             0.001     0.001   0.0% |
 Poisson:                            0.006     0.006   0.0% |
 XC 3D grid:                         0.405     0.405   0.5% |
LCAO initialization:                 0.109     0.006   0.0% |
 LCAO eigensolver:                   0.008     0.000   0.0% |
  Calculate projections:             0.000     0.000   0.0% |
  DenseAtomicCorrection:             0.000     0.000   0.0% |
  Distribute overlap matrix:         0.000     0.000   0.0% |
  Orbital Layouts:                   0.000     0.000   0.0% |
  Potential matrix:                  0.008     0.008   0.0% |
 LCAO to grid:                       0.092     0.092   0.1% |
 Set positions (LCAO WFS):           0.003     0.001   0.0% |
  Basic WFS set positions:           0.000     0.000   0.0% |
  Basis functions set positions:     0.000     0.000   0.0% |
  P tci:                             0.002     0.002   0.0% |
  ST tci:                            0.000     0.000   0.0% |
  mktci:                             0.001     0.001   0.0% |
PWDescriptor:                        0.006     0.006   0.0% |
SCF-cycle:                          27.856     0.005   0.0% |
 Davidson:                          14.262     1.170   1.4% ||
  Apply H:                           2.994     2.969   3.5% ||
   HMM T:                            0.024     0.024   0.0% |
  Subspace diag:                     3.201     0.001   0.0% |
   calc_h_matrix:                    3.034     0.060   0.1% |
    Apply H:                         2.974     2.950   3.5% ||
     HMM T:                          0.025     0.025   0.0% |
   diagonalize:                      0.002     0.002   0.0% |
   rotate_psi:                       0.164     0.164   0.2% |
  calc. matrices:                    6.624     0.674   0.8% |
   Apply H:                          5.950     5.903   7.0% |--|
    HMM T:                           0.047     0.047   0.1% |
  diagonalize:                       0.015     0.015   0.0% |
  rotate_psi:                        0.259     0.259   0.3% |
 Density:                            4.138     0.000   0.0% |
  Atomic density matrices:           0.004     0.004   0.0% |
  Mix:                               2.554     2.554   3.0% ||
  Multipole moments:                 0.001     0.001   0.0% |
  Pseudo density:                    1.579     1.579   1.9% ||
   Symmetrize density:               0.000     0.000   0.0% |
 Hamiltonian:                        9.431     0.093   0.1% |
  Atomic:                            0.690     0.004   0.0% |
   XC Correction:                    0.686     0.686   0.8% |
  Calculate atomic Hamiltonians:     2.111     2.111   2.5% ||
  Communicate:                       0.000     0.000   0.0% |
  Poisson:                           0.059     0.059   0.1% |
  XC 3D grid:                        6.479     6.479   7.7% |--|
 Orthonormalize:                     0.020     0.000   0.0% |
  calc_s_matrix:                     0.003     0.003   0.0% |
  inverse-cholesky:                  0.000     0.000   0.0% |
  projections:                       0.013     0.013   0.0% |
  rotate_psi_s:                      0.004     0.004   0.0% |
Set symmetry:                        0.000     0.000   0.0% |
Other:                              55.511    55.511  66.0% |-------------------------|
-----------------------------------------------------------
Total:                                        84.059 100.0%

Memory usage: 2.63 GiB
Date: Mon Feb 17 19:36:11 2025
