6
Lattice="16.0 0.0 0.0 0.0 16.0 0.0 0.0 0.0 16.0" Properties=species:S:1:pos:R:3:magmoms:R:1:forces:R:3 energy=-3.8039405363297254 free_energy=-3.8039405363297254 dipole="-0.06355211279884103 -0.09965969599746176 -0.04193737060672938" magmom=0.0 pbc="F F F"
Na       8.25109848       9.58094011       8.68220171       0.00000000       0.00495783      -0.00632205       0.00240238
Na       6.35717700       8.06079824      11.07962771       0.00000000       0.00303568      -0.00214351      -0.00129443
Na       4.88539252      10.00704275       8.32867762       0.00000000      -0.00069523       0.00077338      -0.00006499
Na       7.18867464       9.84010865       5.45908767       0.00000000      -0.00403189       0.00104024      -0.00209036
Na      10.08215483       7.78633510       6.43079065       0.00000000      -0.00274171      -0.00048719       0.00494042
Na       9.55543161       6.67126626       9.90568731       0.00000000       0.00118889       0.00321411      -0.00490024
