6
Lattice="16.0 0.0 0.0 0.0 16.0 0.0 0.0 0.0 16.0" Properties=species:S:1:pos:R:3:magmoms:R:1:forces:R:3 energy=-4.989316144328771 free_energy=-4.989316144328771 dipole="0.044171516204265585 -0.02194846040286746 0.05660252333422293" magmom=0.0 pbc="F F F"
Na      11.50227483       4.97688708       9.69509057       0.00000000      -0.00334091       0.00233932      -0.00175068
Na       9.10468307       7.12221456      10.75876781       0.00000000      -0.00552383       0.00615856      -0.00283933
Na       6.64642723       9.32702022      11.58734810       0.00000000      -0.00020115      -0.00446131      -0.00332275
Na       7.65136581       8.02664682       5.00480117       0.00000000      -0.00164063      -0.00097244       0.00065824
Na       9.64194379       6.44161653       7.25688794       0.00000000      -0.00318704       0.00264737       0.00367702
Na       7.02309006       8.72332146       8.27695584       0.00000000       0.00216164      -0.00193080      -0.00496343
