6
Lattice="16.0 0.0 0.0 0.0 16.0 0.0 0.0 0.0 16.0" Properties=species:S:1:pos:R:3:magmoms:R:1:forces:R:3 energy=-4.2134961037370635 free_energy=-4.2134961037370635 dipole="0.0030697731187021675 0.0008502560819261839 0.0017288611756244205" magmom=0.0 pbc="F F F"
Na      11.49346179       4.98756024       9.68587536       0.00000000      -0.00538143       0.00484139      -0.00319661
Na       9.09932414       7.12838651      10.74415838       0.00000000       0.00058384       0.00029040       0.00062761
Na       6.65351387       9.31448385      11.58413322       0.00000000       0.00355996      -0.00458514      -0.00608870
Na       7.65044218       8.02217342       5.01888274       0.00000000       0.00045886      -0.00067811       0.00896168
Na       9.62803329       6.45153931       7.27047281       0.00000000      -0.00212132       0.00028026      -0.00192077
Na       7.04766827       8.71598340       8.27974215       0.00000000       0.00111375       0.00208894      -0.00116883
