6
Lattice="16.0 0.0 0.0 0.0 16.0 0.0 0.0 0.0 16.0" Properties=species:S:1:pos:R:3:tags:I:1:forces:R:3:magmoms:R:1 energy=-4.933598461401573 dipole="-0.002389296104736889 0.009530266549633891 0.00035797103593991197" magmom=0.0 free_energy=-4.93359925791613 pbc="F F F"
Na       6.65168431      10.36965757       7.18886480        0       0.00271756      -0.00460394       0.00082883       0.00000000
Na       9.52900678       8.68841564       5.99481110        1       0.00249270       0.01195654       0.00011511       0.00000000
Na       9.11243399      11.94642130       5.66267583        2      -0.00097147      -0.00209474      -0.00032727       0.00000000
Na       4.35297799       8.52795412       8.67223882        3      -0.00391532       0.00258530       0.00420584       0.00000000
Na       7.01544916       6.87824429       7.67025453        4      -0.00707397       0.00030170       0.00054957       0.00000000
Na       9.73638718       5.44720229       6.50635545        5       0.00590535      -0.00765081      -0.00147642       0.00000000
