7
Lattice="16.0 0.0 0.0 0.0 16.0 0.0 0.0 0.0 16.0" Properties=species:S:1:pos:R:3:tags:I:1:forces:R:3:magmoms:R:1 energy=-5.87359233242134 dipole="0.00011256016566774662 -0.0005612948849434226 -0.0010363220500044941" magmom=0.0 free_energy=-5.908253343801322 pbc="F F F"
Na       6.75979988      10.19628208       7.28141260        0       0.00096310       0.00227923       0.00114797       0.00000000
Na       9.58747798       8.69323138       8.60757617        1      -0.00303557      -0.00198052      -0.00296445       0.00000000
Na       6.47143609       8.30453104      10.07149328        2       0.00223208       0.00024773       0.00244836       0.00000000
Na       8.95928942       8.67877633       5.20959127        3       0.00146276      -0.00319613       0.00053620       0.00000000
Na      10.00094831       5.81713641       6.69841664        4       0.00176363       0.00498948       0.00543742       0.00000000
Na       6.70078020       6.75557584       6.99936011        5      -0.00254515      -0.00227729      -0.00267700       0.00000000
Na       8.49761203       5.61292357       9.73154681        6      -0.00010042       0.00151358      -0.00342845       0.00000000
