8
Lattice="16.0 0.0 0.0 0.0 16.0 0.0 0.0 0.0 16.0" Properties=species:S:1:pos:R:3:tags:I:1:forces:R:3:magmoms:R:1 energy=-7.2810741878846175 dipole="0.001972819991758756 -0.0025335724438638936 0.005522378261181139" magmom=0.0 free_energy=-7.281075813553603 pbc="F F F"
Na       5.31595679       7.64930554       8.97897287        0       0.00361139      -0.00748190      -0.00248377       0.00000000
Na       8.26637931       6.26323954       9.14783796        1       0.00172307      -0.00072923       0.00326947       0.00000000
Na       7.87403525       9.75022224       9.86518673        2       0.00012480       0.00363185       0.00891966       0.00000000
Na      10.84769957       8.54909771       9.28262107        3      -0.00426705      -0.00520408       0.00195307       0.00000000
Na      10.17101575       6.71268132       6.32371512        4      -0.00043970       0.00259332      -0.00122810       0.00000000
Na       9.29822751      10.03218499       6.60676628        5      -0.00149198      -0.00303093      -0.00999177       0.00000000
Na       6.99210542       7.32572306       5.97424025        6      -0.00236974       0.00702413       0.00457380       0.00000000
Na       6.09829802      10.48405740       7.01739438        7       0.00140350       0.00154893      -0.00611346       0.00000000
