6
Lattice="16.0 0.0 0.0 0.0 16.0 0.0 0.0 0.0 16.0" Properties=species:S:1:pos:R:3:magmoms:R:1:forces:R:3 energy=-5.487028645156106 free_energy=-5.487028645156106 dipole="-0.06305499567799888 -0.09322574056913688 -0.04490945677511433" magmom=0.0 pbc="F F F"
Na       8.25516101       9.58770717       8.68375842       0.00000000       0.00452268       0.00497853       0.00372076
Na       6.42602859       8.07251815      10.92554737       0.00000000      -0.00150523      -0.00055184      -0.00466874
Na       5.03018893       9.92011054       8.31482617       0.00000000       0.00158662      -0.00212411       0.00123421
Na       7.20492902       9.76730807       5.60193630       0.00000000       0.00177346      -0.00239539       0.00112422
Na       9.95578209       7.82343418       6.52441025       0.00000000      -0.00514392       0.00030912      -0.00015494
Na       9.44661091       6.76086593       9.80057023       0.00000000      -0.00056977       0.00013538      -0.00084304
