
  ___ ___ ___ _ _ _  
 |   |   |_  | | | | 
 | | | | | . | | | | 
 |__ |  _|___|_____|  25.1.0
 |___|_|             

User:   zoe@dhcp-140-47.vpn.chalmers.se
Date:   Sun Feb 16 17:42:18 2025
Arch:   arm64
Pid:    59049
CWD:    /Users/zoe/Documents/GitHub/TIF320_Computitional_Materials_and_Molecular_Physics
Python: 3.12.2
gpaw:   /opt/anaconda3/envs/tif320env/lib/python3.12/site-packages/gpaw
_gpaw:  /opt/anaconda3/envs/tif320env/lib/python3.12/site-packages/
        _gpaw.cpython-312-darwin.so
ase:    /opt/anaconda3/envs/tif320env/lib/python3.12/site-packages/ase (version 3.24.0)
numpy:  /opt/anaconda3/envs/tif320env/lib/python3.12/site-packages/numpy (version 2.0.1)
scipy:  /opt/anaconda3/envs/tif320env/lib/python3.12/site-packages/scipy (version 1.15.1)
libxc:  7.0.0
units:  Angstrom and eV
cores: 1
OpenMP: False
OMP_NUM_THREADS: 1

Input parameters:
  h: 0.15
  mode: fd
  xc: PBE

System changes: positions, numbers, cell, pbc, initial_charges, initial_magmoms 

Initialize ...

species:
  Na:
    name: Sodium
    id: d7ecbc49209718622bcbe287195dca2a
    Z: 11.0
    valence: 7
    core: 4
    charge: 0.0
    file: /opt/anaconda3/envs/tif320env/gpaw-setups/gpaw-setups-24.11.0/Na.PBE.gz
    compensation charges: {type: gauss,
                           rc: 0.37,
                           lmax: 2}
    cutoffs: {filter: 2.17,
              core: 2.59}
    projectors:
      #              energy  rcut
      - 3s(1.00)    -2.744   1.201
      - 2p(6.00)   -28.672   1.217
      - 3p(0.00)    -0.743   1.217
      -  s          24.468   1.201
      -  d           0.000   1.238
  
    # Using partial waves for Na as LCAO basis

Reference energy: -26511.662986  # eV

Spin-paired calculation

Convergence criteria:
 Maximum [total energy] change in last 3 cyles: 0.0005 eV / valence electron
 Maximum integral of absolute [dens]ity change: 0.0001 electrons / valence electron
 Maximum integral of absolute [eigenst]ate change: 4e-08 eV^2 / valence electron
 Maximum number of scf [iter]ations: 333
 (Square brackets indicate name in SCF output, whereas a 'c' in
 the SCF output indicates the quantity has converged.)

Symmetries present (total): 1

  ( 1  0  0)
  ( 0  1  0)
  ( 0  0  1)

1 k-point (Gamma)
1 k-point in the irreducible part of the Brillouin zone
       k-points in crystal coordinates                weights
   0:     0.00000000    0.00000000    0.00000000          1/1

Wave functions: Uniform real-space grid
  Kinetic energy operator: 6*3+1=19 point O(h^6) finite-difference Laplacian
  ScaLapack parameters: grid=1x1, blocksize=None
  Wavefunction extrapolation:
    Improved wavefunction reuse through dual PAW basis 

Occupation numbers: # Zero width 

Eigensolver
   Davidson(niter=2) 

Densities:
  Coarse grid: 108*108*108 grid
  Fine grid: 216*216*216 grid
  Total Charge: 0.000000 

Density mixing:
  Method: separate
  Backend: pulay
  Linear mixing parameter: 0.25
  old densities: 3
  Damping of long wavelength oscillations: 1  # (no daming) 

Hamiltonian:
  XC and Coulomb potentials evaluated on a 216*216*216 grid
  Using the PBE Exchange-Correlation functional
  Interpolation: tri-quintic (5. degree polynomial)
  Poisson solver: FastPoissonSolver using
    Stencil: 6*3+1=19 point O(h^6) finite-difference Laplacian
    FFT axes: []
    FST axes: [np.int64(0), np.int64(1), np.int64(2)]
 

XC parameters: PBE with 2 nearest neighbor stencil

Memory estimate:
  Process memory now: 1828.95 MiB
  Calculator: 1149.00 MiB
    Density: 367.76 MiB
      Arrays: 246.16 MiB
      Localized functions: 65.52 MiB
      Mixer: 56.08 MiB
    Hamiltonian: 165.81 MiB
      Arrays: 160.99 MiB
      XC: 0.00 MiB
      Poisson: 0.00 MiB
      vbar: 4.82 MiB
    Wavefunctions: 615.43 MiB
      Arrays psit_nG: 280.39 MiB
      Eigensolver: 327.19 MiB
      Projections: 0.02 MiB
      Projectors: 7.83 MiB

Total number of cores used: 1

Number of atoms: 6
Number of atomic orbitals: 42
Number of bands in calculation: 30
Number of valence electrons: 42
Bands to converge: occupied

... initialized

Initializing position-dependent things.

Density initialized from atomic densities
Creating initial wave functions:
  30 bands from LCAO basis set

           .--------------------------------------.  
          /|                                      |  
         / |                                      |  
        /  |                                      |  
       /   |                                      |  
      /    |                                      |  
     /     |                                      |  
    /      |                                      |  
   /       |                                      |  
  /        |                                      |  
 *         |           Na                         |  
 |         |                                      |  
 |         |                Na                    |  
 |         |                                      |  
 |         |            Na                        |  
 |         |                    Na                |  
 |         |                                      |  
 |         |                 Na                   |  
 |         |                                      |  
 |         |             Na                       |  
 |         .--------------------------------------.  
 |        /                                      /   
 |       /                                      /    
 |      /                                      /     
 |     /                                      /      
 |    /                                      /       
 |   /                                      /        
 |  /                                      /         
 | /                                      /          
 |/                                      /           
 *--------------------------------------*            

Positions:
   0 Na    11.502275    4.976887    9.695091    ( 0.0000,  0.0000,  0.0000)
   1 Na     9.104683    7.122215   10.758768    ( 0.0000,  0.0000,  0.0000)
   2 Na     6.646427    9.327020   11.587348    ( 0.0000,  0.0000,  0.0000)
   3 Na     7.651366    8.026647    5.004801    ( 0.0000,  0.0000,  0.0000)
   4 Na     9.641944    6.441617    7.256888    ( 0.0000,  0.0000,  0.0000)
   5 Na     7.023090    8.723321    8.276956    ( 0.0000,  0.0000,  0.0000)

Unit cell:
           periodic     x           y           z      points  spacing
  1. axis:    no    16.000000    0.000000    0.000000   108     0.1481
  2. axis:    no     0.000000   16.000000    0.000000   108     0.1481
  3. axis:    no     0.000000    0.000000   16.000000   108     0.1481

  Lengths:  16.000000  16.000000  16.000000
  Angles:   90.000000  90.000000  90.000000

Effective grid spacing dv^(1/3) = 0.1481

     iter     time        total  log10-change:
                         energy   eigst   dens
iter:   1 17:42:26    -4.934071
iter:   2 17:42:30    -4.875958   -0.20  -1.34
iter:   3 17:42:34    -4.897420   -0.35  -1.54
iter:   4 17:42:38    -4.925678   -0.51  -1.89
iter:   5 17:42:42    -4.943028   -0.72  -2.45
iter:   6 17:42:46    -4.952697   -0.93  -2.51
iter:   7 17:42:50    -4.959295c  -1.13  -2.55
iter:   8 17:42:54    -4.962786c  -1.32  -2.91
iter:   9 17:42:58    -4.965370c  -1.50  -2.95
iter:  10 17:43:02    -4.967165c  -1.67  -2.96
iter:  11 17:43:06    -4.968309c  -1.85  -3.19
iter:  12 17:43:10    -4.969036c  -2.03  -3.46
iter:  13 17:43:14    -4.969516c  -2.20  -3.76
iter:  14 17:43:18    -4.969806c  -2.42  -3.70
iter:  15 17:43:23    -4.970022c  -2.59  -3.23
iter:  16 17:43:27    -4.970146c  -2.79  -3.47
iter:  17 17:43:31    -4.970233c  -2.97  -3.30
iter:  18 17:43:35    -4.970303c  -3.10  -3.26
iter:  19 17:43:39    -4.970349c  -3.23  -3.49
iter:  20 17:43:43    -4.970378c  -3.40  -4.02c
iter:  21 17:43:47    -4.970397c  -3.56  -4.32c
iter:  22 17:43:51    -4.970409c  -3.77  -4.59c
iter:  23 17:43:55    -4.970417c  -3.94  -4.48c
iter:  24 17:43:59    -4.970422c  -4.15  -4.55c
iter:  25 17:44:03    -4.970425c  -4.34  -4.32c
iter:  26 17:44:07    -4.970427c  -4.51  -4.16c
iter:  27 17:44:11    -4.970428c  -4.79  -4.19c
iter:  28 17:44:15    -4.970430c  -4.67  -4.00
iter:  29 17:44:19    -4.970431c  -4.99  -4.89c
iter:  30 17:44:24    -4.970432c  -5.16  -4.97c
iter:  31 17:44:28    -4.970432c  -5.21  -5.10c
iter:  32 17:44:32    -4.970432c  -5.60  -4.86c
iter:  33 17:44:36    -4.970432c  -5.72  -5.47c
iter:  34 17:44:40    -4.970432c  -5.99  -5.25c
iter:  35 17:44:44    -4.970432c  -6.23  -5.65c
iter:  36 17:44:48    -4.970432c  -6.42  -5.93c
iter:  37 17:44:52    -4.970432c  -6.63  -5.72c
iter:  38 17:44:56    -4.970432c  -6.80  -5.40c
iter:  39 17:45:00    -4.970432c  -7.00  -5.38c
iter:  40 17:45:04    -4.970432c  -7.20  -5.29c
iter:  41 17:45:09    -4.970432c  -7.31  -5.16c
iter:  42 17:45:13    -4.970432c  -7.51c -5.53c

Converged after 42 iterations.

Dipole moment: (0.043867, -0.021752, 0.056186) |e|*Ang

Energy contributions relative to reference atoms: (reference = -26511.662986)

Kinetic:         +4.759759
Potential:       -4.589893
External:        +0.000000
XC:              -4.954917
Entropy (-ST):   +0.000000
Local:           -0.185383
SIC:             +0.000000
--------------------------
Free energy:     -4.970432
Extrapolated:    -4.970432

 Band  Eigenvalues  Occupancy
    0    -27.99526    2.00000
    1    -27.99491    2.00000
    2    -27.98899    2.00000
    3    -27.98822    2.00000
    4    -27.98755    2.00000
    5    -27.98176    2.00000
    6    -27.98090    2.00000
    7    -27.98064    2.00000
    8    -27.97453    2.00000
    9    -27.89474    2.00000
   10    -27.88741    2.00000
   11    -27.88547    2.00000
   12    -27.88447    2.00000
   13    -27.88092    2.00000
   14    -27.87981    2.00000
   15    -27.84268    2.00000
   16    -27.84144    2.00000
   17    -27.83734    2.00000
   18     -3.96790    2.00000
   19     -3.01949    2.00000
   20     -3.01424    2.00000
   21     -1.76309    0.00000
   22     -1.66552    0.00000
   23     -1.64540    0.00000
   24     -1.43051    0.00000
   25     -0.68755    0.00000
   26     -0.65141    0.00000
   27     -0.62256    0.00000
   28     -0.61536    0.00000
   29     -0.51042    0.00000

Fermi level: -2.38866

Gap: 1.251 eV
Transition (v -> c):
  (s=0, k=0, n=20, [0.00, 0.00, 0.00]) -> (s=0, k=0, n=21, [0.00, 0.00, 0.00])
No difference between direct/indirect transitions

Forces in eV/Ang:
  0 Na   -0.00184    0.00102   -0.00166
  1 Na   -0.00530    0.00276   -0.00450
  2 Na   -0.00313    0.00013   -0.00142
  3 Na   -0.00272   -0.00154    0.00157
  4 Na   -0.00487    0.00315    0.00073
  5 Na    0.00768   -0.00008   -0.00418

Timing:                              incl.     excl.
-----------------------------------------------------------
Forces:                              0.434     0.434   0.1% |
Hamiltonian:                         1.284     0.000   0.0% |
 Atomic:                             0.051     0.000   0.0% |
  XC Correction:                     0.051     0.051   0.0% |
 Calculate atomic Hamiltonians:      0.009     0.009   0.0% |
 Communicate:                        0.000     0.000   0.0% |
 Hartree integrate/restrict:         0.031     0.031   0.0% |
 Initialize Hamiltonian:             0.000     0.000   0.0% |
 Poisson:                            0.389     0.018   0.0% |
  Communicate from 1D:               0.044     0.044   0.0% |
  Communicate from 2D:               0.043     0.043   0.0% |
  Communicate to 1D:                 0.044     0.044   0.0% |
  Communicate to 2D:                 0.043     0.043   0.0% |
  FFT 1D:                            0.058     0.058   0.0% |
  FFT 2D:                            0.139     0.139   0.0% |
 XC 3D grid:                         0.796     0.796   0.1% |
 vbar:                               0.009     0.009   0.0% |
LCAO initialization:                 0.179     0.011   0.0% |
 LCAO eigensolver:                   0.043     0.000   0.0% |
  Calculate projections:             0.000     0.000   0.0% |
  DenseAtomicCorrection:             0.000     0.000   0.0% |
  Distribute overlap matrix:         0.000     0.000   0.0% |
  Orbital Layouts:                   0.000     0.000   0.0% |
  Potential matrix:                  0.042     0.042   0.0% |
 LCAO to grid:                       0.122     0.122   0.0% |
 Set positions (LCAO WFS):           0.004     0.001   0.0% |
  Basic WFS set positions:           0.000     0.000   0.0% |
  Basis functions set positions:     0.000     0.000   0.0% |
  P tci:                             0.002     0.002   0.0% |
  ST tci:                            0.001     0.001   0.0% |
  mktci:                             0.001     0.001   0.0% |
SCF-cycle:                         170.208     0.015   0.0% |
 Davidson:                         116.830    44.153   5.5% |-|
  Apply hamiltonian:                12.700    12.700   1.6% ||
  Subspace diag:                    16.685     0.001   0.0% |
   calc_h_matrix:                   14.463     1.829   0.2% |
    Apply hamiltonian:              12.633    12.633   1.6% ||
   diagonalize:                      0.005     0.005   0.0% |
   rotate_psi:                       2.216     2.216   0.3% |
  calc. matrices:                   39.356    14.005   1.7% ||
   Apply hamiltonian:               25.351    25.351   3.1% ||
  diagonalize:                       0.045     0.045   0.0% |
  rotate_psi:                        3.891     3.891   0.5% |
 Density:                            1.979     0.000   0.0% |
  Atomic density matrices:           0.009     0.009   0.0% |
  Mix:                               1.609     1.609   0.2% |
  Multipole moments:                 0.002     0.002   0.0% |
  Pseudo density:                    0.358     0.358   0.0% |
   Symmetrize density:               0.000     0.000   0.0% |
 Hamiltonian:                       51.236     0.001   0.0% |
  Atomic:                            2.091     0.009   0.0% |
   XC Correction:                    2.083     2.083   0.3% |
  Calculate atomic Hamiltonians:     0.352     0.352   0.0% |
  Communicate:                       0.000     0.000   0.0% |
  Hartree integrate/restrict:        0.945     0.945   0.1% |
  Poisson:                          15.683     0.571   0.1% |
   Communicate from 1D:              1.755     1.755   0.2% |
   Communicate from 2D:              1.769     1.769   0.2% |
   Communicate to 1D:                1.769     1.769   0.2% |
   Communicate to 2D:                1.746     1.746   0.2% |
   FFT 1D:                           2.390     2.390   0.3% |
   FFT 2D:                           5.683     5.683   0.7% |
  XC 3D grid:                       31.988    31.988   4.0% |-|
  vbar:                              0.176     0.176   0.0% |
 Orthonormalize:                     0.148     0.000   0.0% |
  calc_s_matrix:                     0.034     0.034   0.0% |
  inverse-cholesky:                  0.000     0.000   0.0% |
  projections:                       0.033     0.033   0.0% |
  rotate_psi_s:                      0.081     0.081   0.0% |
Set symmetry:                        0.000     0.000   0.0% |
Other:                             633.705   633.705  78.6% |------------------------------|
-----------------------------------------------------------
Total:                                       805.810 100.0%

Memory usage: 3.10 GiB
Date: Sun Feb 16 17:55:44 2025
