
  ___ ___ ___ _ _ _  
 |   |   |_  | | | | 
 | | | | | . | | | | 
 |__ |  _|___|_____|  25.1.0
 |___|_|             

User:   zoe@Zoes-MacBook-Air.local
Date:   Thu Feb 20 16:29:36 2025
Arch:   arm64
Pid:    93008
CWD:    /Users/zoe/Documents/GitHub/TIF320_Computitional_Materials_and_Molecular_Physics/A2
Python: 3.12.2
gpaw:   /opt/anaconda3/envs/tif320env/lib/python3.12/site-packages/gpaw
_gpaw:  /opt/anaconda3/envs/tif320env/lib/python3.12/site-packages/
        _gpaw.cpython-312-darwin.so
ase:    /opt/anaconda3/envs/tif320env/lib/python3.12/site-packages/ase (version 3.24.0)
numpy:  /opt/anaconda3/envs/tif320env/lib/python3.12/site-packages/numpy (version 2.0.1)
scipy:  /opt/anaconda3/envs/tif320env/lib/python3.12/site-packages/scipy (version 1.15.1)
libxc:  7.0.0
units:  Angstrom and eV
cores: 1
OpenMP: False
OMP_NUM_THREADS: 1

Input parameters:
  mode: lcao
  xc: PBE

System changes: positions, numbers, cell, pbc, initial_charges, initial_magmoms 

Initialize ...

species:
  Na:
    name: Sodium
    id: d7ecbc49209718622bcbe287195dca2a
    Z: 11.0
    valence: 7
    core: 4
    charge: 0.0
    file: /opt/anaconda3/envs/tif320env/gpaw-setups/gpaw-setups-24.11.0/Na.PBE.gz
    compensation charges: {type: gauss,
                           rc: 0.37,
                           lmax: 2}
    cutoffs: {filter: 2.17,
              core: 2.59}
    projectors:
      #              energy  rcut
      - 3s(1.00)    -2.744   1.201
      - 2p(6.00)   -28.672   1.217
      - 3p(0.00)    -0.743   1.217
      -  s          24.468   1.201
      -  d           0.000   1.238
  
    # Using partial waves for Na as LCAO basis

Reference energy: -26511.662986  # eV

Spin-paired calculation

Convergence criteria:
 Maximum [total energy] change in last 3 cyles: 0.0005 eV / valence electron
 Maximum integral of absolute [dens]ity change: 0.0001 electrons / valence electron
 Maximum integral of absolute [eigenst]ate change: 4e-08 eV^2 / valence electron
 Maximum number of scf [iter]ations: 333
 (Square brackets indicate name in SCF output, whereas a 'c' in
 the SCF output indicates the quantity has converged.)

Symmetries present (total): 1

  ( 1  0  0)
  ( 0  1  0)
  ( 0  0  1)

1 k-point (Gamma)
1 k-point in the irreducible part of the Brillouin zone
       k-points in crystal coordinates                weights
   0:     0.00000000    0.00000000    0.00000000          1/1

Wave functions: LCAO
  Diagonalizer: Serial LAPACK
  Atomic Correction: dense with blas
  Data-type: float
 

Occupation numbers: # Zero width 

Eigensolver
   LCAO using direct dense diagonalizer 

Densities:
  Coarse grid: 80*80*80 grid
  Fine grid: 160*160*160 grid
  Total Charge: 0.000000 

Density mixing:
  Method: separate
  Backend: pulay
  Linear mixing parameter: 0.25
  old densities: 3
  Damping of long wavelength oscillations: 1  # (no daming) 

Hamiltonian:
  XC and Coulomb potentials evaluated on a 160*160*160 grid
  Using the PBE Exchange-Correlation functional
  Interpolation: tri-quintic (5. degree polynomial)
  Poisson solver: FastPoissonSolver using
    Stencil: 6*3+1=19 point O(h^6) finite-difference Laplacian
    FFT axes: []
    FST axes: [np.int64(0), np.int64(1), np.int64(2)]
 

XC parameters: PBE with 2 nearest neighbor stencil

Memory estimate:
  Process memory now: 1161.89 MiB
  Calculator: 228.55 MiB
    Density: 148.73 MiB
      Arrays: 99.53 MiB
      Localized functions: 26.63 MiB
      Mixer: 22.57 MiB
    Hamiltonian: 67.06 MiB
      Arrays: 65.10 MiB
      XC: 0.00 MiB
      Poisson: 0.00 MiB
      vbar: 1.96 MiB
    Wavefunctions: 12.77 MiB
      C [qnM]: 0.01 MiB
      S, T [2 x qmm]: 0.03 MiB
      P [aqMi]: 0.00 MiB
      BasisFunctions: 12.73 MiB
      Eigensolver: 0.00 MiB

Total number of cores used: 1

Number of atoms: 6
Number of atomic orbitals: 42
Number of bands in calculation: 30
Number of valence electrons: 42
Bands to converge: occupied

... initialized

Initializing position-dependent things.

Density initialized from atomic densities
           .--------------------------------------.  
          /|                                      |  
         / |                                      |  
        /  |                                      |  
       /   |                                      |  
      /    |                                      |  
     /     |                                      |  
    /      |                                      |  
   /       |                                      |  
  /        |                                      |  
 *         |                                      |  
 |         |          Na                          |  
 |         |                                      |  
 |         |       Na      Na                     |  
 |         |                Na                    |  
 |         |                                      |  
 |         |                                      |  
 |         |             Na   Na                  |  
 |         |                                      |  
 |         |                                      |  
 |         .--------------------------------------.  
 |        /                                      /   
 |       /                                      /    
 |      /                                      /     
 |     /                                      /      
 |    /                                      /       
 |   /                                      /        
 |  /                                      /         
 | /                                      /          
 |/                                      /           
 *--------------------------------------*            

Positions:
   0 Na     8.210231    9.489933    8.656516    ( 0.0000,  0.0000,  0.0000)
   1 Na     6.417931    8.101846   10.968460    ( 0.0000,  0.0000,  0.0000)
   2 Na     5.009862    9.947279    8.321395    ( 0.0000,  0.0000,  0.0000)
   3 Na     7.211492    9.790525    5.577356    ( 0.0000,  0.0000,  0.0000)
   4 Na     9.992557    7.848605    6.505352    ( 0.0000,  0.0000,  0.0000)
   5 Na     9.477264    6.754058    9.822530    ( 0.0000,  0.0000,  0.0000)

Unit cell:
           periodic     x           y           z      points  spacing
  1. axis:    no    16.000000    0.000000    0.000000    80     0.2000
  2. axis:    no     0.000000   16.000000    0.000000    80     0.2000
  3. axis:    no     0.000000    0.000000   16.000000    80     0.2000

  Lengths:  16.000000  16.000000  16.000000
  Angles:   90.000000  90.000000  90.000000

Effective grid spacing dv^(1/3) = 0.2000

     iter     time        total  log10-change:
                         energy   eigst   dens
iter:   1 16:29:39    -3.982051        c
iter:   2 16:29:40    -3.785667        c -1.32
iter:   3 16:29:41    -3.730723        c -1.53
iter:   4 16:29:42    -3.725669        c -2.00
iter:   5 16:29:43    -3.725119c       c -2.70
iter:   6 16:29:44    -3.725058c       c -3.18
iter:   7 16:29:45    -3.725043c       c -3.54
iter:   8 16:29:46    -3.725042c       c -3.94
iter:   9 16:29:47    -3.725041c       c -4.13c

Converged after 9 iterations.

Dipole moment: (-0.071106, -0.117586, -0.046161) |e|*Ang

Energy contributions relative to reference atoms: (reference = -26511.662986)

Kinetic:        +20.172727
Potential:      -16.613772
External:        +0.000000
XC:              -7.290730
Entropy (-ST):   +0.000000
Local:           +0.006733
SIC:             +0.000000
--------------------------
Free energy:     -3.725041
Extrapolated:    -3.725041

 Band  Eigenvalues  Occupancy
    0    -27.47077    2.00000
    1    -27.46991    2.00000
    2    -27.46652    2.00000
    3    -27.45778    2.00000
    4    -27.45479    2.00000
    5    -27.45320    2.00000
    6    -27.45131    2.00000
    7    -27.44957    2.00000
    8    -27.44784    2.00000
    9    -27.44597    2.00000
   10    -27.44041    2.00000
   11    -27.43968    2.00000
   12    -27.42819    2.00000
   13    -27.42776    2.00000
   14    -27.42094    2.00000
   15    -27.37552    2.00000
   16    -27.35536    2.00000
   17    -27.35499    2.00000
   18     -3.72973    2.00000
   19     -2.56421    2.00000
   20     -2.55594    2.00000
   21     -1.17752    0.00000
   22     -1.11658    0.00000
   23     -1.11164    0.00000
   24     -0.51759    0.00000
   25      0.16912    0.00000
   26      0.17224    0.00000
   27      0.48438    0.00000
   28      0.48522    0.00000
   29      0.86789    0.00000

Fermi level: -1.86673

Gap: 1.378 eV
Transition (v -> c):
  (s=0, k=0, n=20, [0.00, 0.00, 0.00]) -> (s=0, k=0, n=21, [0.00, 0.00, 0.00])
No difference between direct/indirect transitions

Forces in eV/Ang:
  0 Na    0.09249    0.18290    0.06595
  1 Na   -0.09919   -0.06654    0.17477
  2 Na   -0.19338    0.06645   -0.01054
  3 Na   -0.04944    0.05730   -0.19573
  4 Na    0.14397   -0.08292   -0.13247
  5 Na    0.10695   -0.15497    0.09646

System changes: positions 

Initializing position-dependent things.

Density initialized from wave functions
           .--------------------------------------.  
          /|                                      |  
         / |                                      |  
        /  |                                      |  
       /   |                                      |  
      /    |                                      |  
     /     |                                      |  
    /      |                                      |  
   /       |                                      |  
  /        |                                      |  
 *         |                                      |  
 |         |          Na                          |  
 |         |                                      |  
 |         |       Na      Na                     |  
 |         |                Na                    |  
 |         |                                      |  
 |         |                                      |  
 |         |             Na   Na                  |  
 |         |                                      |  
 |         |                                      |  
 |         .--------------------------------------.  
 |        /                                      /   
 |       /                                      /    
 |      /                                      /     
 |     /                                      /      
 |    /                                      /       
 |   /                                      /        
 |  /                                      /         
 | /                                      /          
 |/                                      /           
 *--------------------------------------*            

Positions:
   0 Na     8.211552    9.492546    8.657458    ( 0.0000,  0.0000,  0.0000)
   1 Na     6.416513    8.100895   10.970956    ( 0.0000,  0.0000,  0.0000)
   2 Na     5.007100    9.948229    8.321244    ( 0.0000,  0.0000,  0.0000)
   3 Na     7.210786    9.791344    5.574560    ( 0.0000,  0.0000,  0.0000)
   4 Na     9.994614    7.847421    6.503459    ( 0.0000,  0.0000,  0.0000)
   5 Na     9.478791    6.751844    9.823908    ( 0.0000,  0.0000,  0.0000)

Unit cell:
           periodic     x           y           z      points  spacing
  1. axis:    no    16.000000    0.000000    0.000000    80     0.2000
  2. axis:    no     0.000000   16.000000    0.000000    80     0.2000
  3. axis:    no     0.000000    0.000000   16.000000    80     0.2000

  Lengths:  16.000000  16.000000  16.000000
  Angles:   90.000000  90.000000  90.000000

Effective grid spacing dv^(1/3) = 0.2000

     iter     time        total  log10-change:
                         energy   eigst   dens
iter:   1 16:29:49    -3.728804        c
iter:   2 16:29:50    -3.728803        c -4.05c
iter:   3 16:29:51    -3.728802c       c -4.19c

Converged after 3 iterations.

Dipole moment: (-0.071007, -0.117350, -0.046073) |e|*Ang

Energy contributions relative to reference atoms: (reference = -26511.662986)

Kinetic:        +20.030227
Potential:      -16.499333
External:        +0.000000
XC:              -7.266074
Entropy (-ST):   +0.000000
Local:           +0.006379
SIC:             +0.000000
--------------------------
Free energy:     -3.728802
Extrapolated:    -3.728802

 Band  Eigenvalues  Occupancy
    0    -27.47149    2.00000
    1    -27.47059    2.00000
    2    -27.46729    2.00000
    3    -27.45874    2.00000
    4    -27.45579    2.00000
    5    -27.45435    2.00000
    6    -27.45244    2.00000
    7    -27.45074    2.00000
    8    -27.44900    2.00000
    9    -27.44710    2.00000
   10    -27.44146    2.00000
   11    -27.44067    2.00000
   12    -27.42927    2.00000
   13    -27.42887    2.00000
   14    -27.42210    2.00000
   15    -27.37668    2.00000
   16    -27.35639    2.00000
   17    -27.35604    2.00000
   18     -3.72667    2.00000
   19     -2.56303    2.00000
   20     -2.55483    2.00000
   21     -1.17776    0.00000
   22     -1.11744    0.00000
   23     -1.11248    0.00000
   24     -0.51565    0.00000
   25      0.16847    0.00000
   26      0.17151    0.00000
   27      0.48196    0.00000
   28      0.48284    0.00000
   29      0.86716    0.00000

Fermi level: -1.86630

Gap: 1.377 eV
Transition (v -> c):
  (s=0, k=0, n=20, [0.00, 0.00, 0.00]) -> (s=0, k=0, n=21, [0.00, 0.00, 0.00])
No difference between direct/indirect transitions

Forces in eV/Ang:
  0 Na    0.09070    0.17886    0.06434
  1 Na   -0.09628   -0.06484    0.17001
  2 Na   -0.18828    0.06495   -0.01018
  3 Na   -0.04809    0.05599   -0.19059
  4 Na    0.14035   -0.08076   -0.12932
  5 Na    0.10424   -0.15079    0.09396

System changes: positions 

Initializing position-dependent things.

Density initialized from wave functions
           .--------------------------------------.  
          /|                                      |  
         / |                                      |  
        /  |                                      |  
       /   |                                      |  
      /    |                                      |  
     /     |                                      |  
    /      |                                      |  
   /       |                                      |  
  /        |                                      |  
 *         |                                      |  
 |         |          Na                          |  
 |         |                                      |  
 |         |       Na      NNa                    |  
 |         |                                      |  
 |         |                                      |  
 |         |                                      |  
 |         |             Na   Na                  |  
 |         |                                      |  
 |         |                                      |  
 |         .--------------------------------------.  
 |        /                                      /   
 |       /                                      /    
 |      /                                      /     
 |     /                                      /      
 |    /                                      /       
 |   /                                      /        
 |  /                                      /         
 | /                                      /          
 |/                                      /           
 *--------------------------------------*            

Positions:
   0 Na     8.262617    9.593239    8.693683    ( 0.0000,  0.0000,  0.0000)
   1 Na     6.362307    8.064393   11.066672    ( 0.0000,  0.0000,  0.0000)
   2 Na     4.901098    9.984796    8.315516    ( 0.0000,  0.0000,  0.0000)
   3 Na     7.183711    9.822863    5.467258    ( 0.0000,  0.0000,  0.0000)
   4 Na    10.073627    7.801956    6.430652    ( 0.0000,  0.0000,  0.0000)
   5 Na     9.537476    6.666948    9.876808    ( 0.0000,  0.0000,  0.0000)

Unit cell:
           periodic     x           y           z      points  spacing
  1. axis:    no    16.000000    0.000000    0.000000    80     0.2000
  2. axis:    no     0.000000   16.000000    0.000000    80     0.2000
  3. axis:    no     0.000000    0.000000   16.000000    80     0.2000

  Lengths:  16.000000  16.000000  16.000000
  Angles:   90.000000  90.000000  90.000000

Effective grid spacing dv^(1/3) = 0.2000

     iter     time        total  log10-change:
                         energy   eigst   dens
iter:   1 16:29:53    -3.806296        c
iter:   2 16:29:54    -3.804872        c -2.45
iter:   3 16:29:55    -3.803394c       c -2.58
iter:   4 16:29:56    -3.803357c       c -3.26
iter:   5 16:29:57    -3.803353c       c -3.96
iter:   6 16:29:58    -3.803352c       c -4.52c

Converged after 6 iterations.

Dipole moment: (-0.062340, -0.100709, -0.039427) |e|*Ang

Energy contributions relative to reference atoms: (reference = -26511.662986)

Kinetic:        +14.216473
Potential:      -11.744970
External:        +0.000000
XC:              -6.278837
Entropy (-ST):   +0.000000
Local:           +0.003982
SIC:             +0.000000
--------------------------
Free energy:     -3.803352
Extrapolated:    -3.803352

 Band  Eigenvalues  Occupancy
    0    -27.51556    2.00000
    1    -27.51401    2.00000
    2    -27.51203    2.00000
    3    -27.51010    2.00000
    4    -27.50967    2.00000
    5    -27.50748    2.00000
    6    -27.50646    2.00000
    7    -27.50600    2.00000
    8    -27.50163    2.00000
    9    -27.49968    2.00000
   10    -27.49264    2.00000
   11    -27.49077    2.00000
   12    -27.48373    2.00000
   13    -27.48262    2.00000
   14    -27.47803    2.00000
   15    -27.47301    2.00000
   16    -27.44884    2.00000
   17    -27.44880    2.00000
   18     -3.61562    2.00000
   19     -2.52050    2.00000
   20     -2.51470    2.00000
   21     -1.20084    0.00000
   22     -1.15261    0.00000
   23     -1.14688    0.00000
   24     -0.43983    0.00000
   25      0.13981    0.00000
   26      0.14111    0.00000
   27      0.39498    0.00000
   28      0.39700    0.00000
   29      0.84160    0.00000

Fermi level: -1.85777

Gap: 1.314 eV
Transition (v -> c):
  (s=0, k=0, n=20, [0.00, 0.00, 0.00]) -> (s=0, k=0, n=21, [0.00, 0.00, 0.00])
No difference between direct/indirect transitions

Forces in eV/Ang:
  0 Na    0.00901    0.00247    0.00042
  1 Na   -0.00383   -0.00748    0.01209
  2 Na   -0.01706    0.00712    0.00258
  3 Na   -0.00527    0.00806   -0.01256
  4 Na    0.01003   -0.00760   -0.00360
  5 Na    0.00820   -0.00666    0.00789

System changes: positions 

Initializing position-dependent things.

Density initialized from wave functions
           .--------------------------------------.  
          /|                                      |  
         / |                                      |  
        /  |                                      |  
       /   |                                      |  
      /    |                                      |  
     /     |                                      |  
    /      |                                      |  
   /       |                                      |  
  /        |                                      |  
 *         |                                      |  
 |         |          Na                          |  
 |         |                                      |  
 |         |       Na      NNa                    |  
 |         |                                      |  
 |         |                                      |  
 |         |                                      |  
 |         |             Na   Na                  |  
 |         |                                      |  
 |         |                                      |  
 |         .--------------------------------------.  
 |        /                                      /   
 |       /                                      /    
 |      /                                      /     
 |     /                                      /      
 |    /                                      /       
 |   /                                      /        
 |  /                                      /         
 | /                                      /          
 |/                                      /           
 *--------------------------------------*            

Positions:
   0 Na     8.266112    9.599899    8.696072    ( 0.0000,  0.0000,  0.0000)
   1 Na     6.358684    8.061878   11.073151    ( 0.0000,  0.0000,  0.0000)
   2 Na     4.893867    9.987309    8.315178    ( 0.0000,  0.0000,  0.0000)
   3 Na     7.181850    9.825058    5.460010    ( 0.0000,  0.0000,  0.0000)
   4 Na    10.078976    7.798850    6.425809    ( 0.0000,  0.0000,  0.0000)
   5 Na     9.541460    6.661264    9.880407    ( 0.0000,  0.0000,  0.0000)

Unit cell:
           periodic     x           y           z      points  spacing
  1. axis:    no    16.000000    0.000000    0.000000    80     0.2000
  2. axis:    no     0.000000   16.000000    0.000000    80     0.2000
  3. axis:    no     0.000000    0.000000   16.000000    80     0.2000

  Lengths:  16.000000  16.000000  16.000000
  Angles:   90.000000  90.000000  90.000000

Effective grid spacing dv^(1/3) = 0.2000

     iter     time        total  log10-change:
                         energy   eigst   dens
iter:   1 16:29:59    -3.803688        c
iter:   2 16:30:00    -3.803681        c -3.59
iter:   3 16:30:01    -3.803674c       c -3.72
iter:   4 16:30:02    -3.803674c       c -4.37c

Converged after 4 iterations.

Dipole moment: (-0.061752, -0.099463, -0.038972) |e|*Ang

Energy contributions relative to reference atoms: (reference = -26511.662986)

Kinetic:        +13.954515
Potential:      -11.534110
External:        +0.000000
XC:              -6.228147
Entropy (-ST):   +0.000000
Local:           +0.004068
SIC:             +0.000000
--------------------------
Free energy:     -3.803674
Extrapolated:    -3.803674

 Band  Eigenvalues  Occupancy
    0    -27.51799    2.00000
    1    -27.51643    2.00000
    2    -27.51451    2.00000
    3    -27.51286    2.00000
    4    -27.51237    2.00000
    5    -27.51022    2.00000
    6    -27.50916    2.00000
    7    -27.50879    2.00000
    8    -27.50411    2.00000
    9    -27.50217    2.00000
   10    -27.49520    2.00000
   11    -27.49331    2.00000
   12    -27.48651    2.00000
   13    -27.48534    2.00000
   14    -27.48089    2.00000
   15    -27.47977    2.00000
   16    -27.45552    2.00000
   17    -27.45548    2.00000
   18     -3.60837    2.00000
   19     -2.51769    2.00000
   20     -2.51208    2.00000
   21     -1.20299    0.00000
   22     -1.15499    0.00000
   23     -1.14929    0.00000
   24     -0.43470    0.00000
   25      0.13786    0.00000
   26      0.13914    0.00000
   27      0.38962    0.00000
   28      0.39166    0.00000
   29      0.84001    0.00000

Fermi level: -1.85754

Gap: 1.309 eV
Transition (v -> c):
  (s=0, k=0, n=20, [0.00, 0.00, 0.00]) -> (s=0, k=0, n=21, [0.00, 0.00, 0.00])
No difference between direct/indirect transitions

Forces in eV/Ang:
  0 Na    0.00280   -0.00874   -0.00343
  1 Na    0.00240   -0.00364    0.00194
  2 Na   -0.00621    0.00386    0.00331
  3 Na   -0.00168    0.00497   -0.00181
  4 Na    0.00160   -0.00262    0.00430
  5 Na    0.00284    0.00258    0.00174

Timing:                                       incl.     excl.
--------------------------------------------------------------------
Basic WFS set positions:                      0.001     0.001   0.0% |
 Redistribute:                                0.000     0.000   0.0% |
Basis functions set positions:                0.050     0.050   0.2% |
Forces:                                       1.281     0.398   1.5% ||
 LCAO forces:                                 0.883     0.002   0.0% |
  Atomic Hamiltonian force:                   0.003     0.003   0.0% |
  Initial:                                    0.000     0.000   0.0% |
   Get density matrix:                        0.000     0.000   0.0% |
  Paw correction:                             0.002     0.002   0.0% |
  Potential:                                  0.841     0.841   3.2% ||
  TCI derivative:                             0.035     0.035   0.1% |
  Wait for sum:                               0.000     0.000   0.0% |
LCAO WFS Initialize:                          4.092     0.076   0.3% |
 Density initialized from wave functions:     0.182     0.081   0.3% |
  Calculate density matrix:                   0.000     0.000   0.0% |
  Construct density:                          0.101     0.101   0.4% |
  Symmetrize density:                         0.000     0.000   0.0% |
 Hamiltonian:                                 3.834     0.000   0.0% |
  Atomic:                                     0.372     0.002   0.0% |
   XC Correction:                             0.370     0.370   1.4% ||
  Calculate atomic Hamiltonians:              0.024     0.024   0.1% |
  Communicate:                                0.000     0.000   0.0% |
  Hartree integrate/restrict:                 0.068     0.068   0.3% |
  Initialize Hamiltonian:                     0.000     0.000   0.0% |
  Poisson:                                    1.075     0.041   0.2% |
   Communicate from 1D:                       0.123     0.123   0.5% |
   Communicate from 2D:                       0.127     0.127   0.5% |
   Communicate to 1D:                         0.121     0.121   0.5% |
   Communicate to 2D:                         0.138     0.138   0.5% |
   FFT 1D:                                    0.179     0.179   0.7% |
   FFT 2D:                                    0.347     0.347   1.3% ||
  XC 3D grid:                                 2.278     2.278   8.7% |--|
  vbar:                                       0.016     0.016   0.1% |
P tci:                                        0.021     0.021   0.1% |
Redistribute:                                 0.000     0.000   0.0% |
SCF-cycle:                                   18.827     0.010   0.0% |
 Density:                                     1.150     0.000   0.0% |
  Atomic density matrices:                    0.007     0.007   0.0% |
  Mix:                                        0.513     0.513   2.0% ||
  Multipole moments:                          0.001     0.001   0.0% |
  Normalize:                                  0.004     0.004   0.0% |
  Pseudo density:                             0.624     0.007   0.0% |
   Calculate density matrix:                  0.001     0.001   0.0% |
   Construct density:                         0.616     0.616   2.4% ||
   Symmetrize density:                        0.000     0.000   0.0% |
 Hamiltonian:                                16.895     0.001   0.0% |
  Atomic:                                     1.686     0.009   0.0% |
   XC Correction:                             1.677     1.677   6.4% |--|
  Calculate atomic Hamiltonians:              0.111     0.111   0.4% |
  Communicate:                                0.000     0.000   0.0% |
  Hartree integrate/restrict:                 0.306     0.306   1.2% |
  Poisson:                                    4.724     0.169   0.6% |
   Communicate from 1D:                       0.550     0.550   2.1% ||
   Communicate from 2D:                       0.569     0.569   2.2% ||
   Communicate to 1D:                         0.584     0.584   2.2% ||
   Communicate to 2D:                         0.574     0.574   2.2% ||
   FFT 1D:                                    0.658     0.658   2.5% ||
   FFT 2D:                                    1.620     1.620   6.2% |-|
  XC 3D grid:                                 9.992     9.992  38.2% |--------------|
  vbar:                                       0.075     0.075   0.3% |
 LCAO eigensolver:                            0.773     0.001   0.0% |
  Calculate projections:                      0.001     0.001   0.0% |
  DenseAtomicCorrection:                      0.003     0.003   0.0% |
  Distribute overlap matrix:                  0.000     0.000   0.0% |
  Orbital Layouts:                            0.009     0.009   0.0% |
  Potential matrix:                           0.759     0.759   2.9% ||
ST tci:                                       0.005     0.005   0.0% |
Set symmetry:                                 0.000     0.000   0.0% |
TCI: Evaluate splines:                        0.011     0.011   0.0% |
mktci:                                        0.003     0.003   0.0% |
Other:                                        1.885     1.885   7.2% |--|
--------------------------------------------------------------------
Total:                                                 26.176 100.0%

Memory usage: 1.22 GiB
Date: Thu Feb 20 16:30:03 2025
