
  ___ ___ ___ _ _ _  
 |   |   |_  | | | | 
 | | | | | . | | | | 
 |__ |  _|___|_____|  25.1.0
 |___|_|             

User:   zoe@Zoes-MacBook-Air.local
Date:   Sun Feb 16 18:55:11 2025
Arch:   arm64
Pid:    60072
CWD:    /Users/zoe/Documents/GitHub/TIF320_Computitional_Materials_and_Molecular_Physics
Python: 3.12.2
gpaw:   /opt/anaconda3/envs/tif320env/lib/python3.12/site-packages/gpaw
_gpaw:  /opt/anaconda3/envs/tif320env/lib/python3.12/site-packages/
        _gpaw.cpython-312-darwin.so
ase:    /opt/anaconda3/envs/tif320env/lib/python3.12/site-packages/ase (version 3.24.0)
numpy:  /opt/anaconda3/envs/tif320env/lib/python3.12/site-packages/numpy (version 2.0.1)
scipy:  /opt/anaconda3/envs/tif320env/lib/python3.12/site-packages/scipy (version 1.15.1)
libxc:  7.0.0
units:  Angstrom and eV
cores: 1
OpenMP: False
OMP_NUM_THREADS: 1

Input parameters:
  mode: {ecut: 400.0,
         name: pw}

System changes: positions, numbers, cell, pbc, initial_charges, initial_magmoms 

Initialize ...

species:
  Na:
    name: Sodium
    id: 74d681ec425db66acd6a232eb07f04e6
    Z: 11.0
    valence: 7
    core: 4
    charge: 0.0
    file: /opt/anaconda3/envs/tif320env/gpaw-setups/gpaw-setups-24.11.0/Na.LDA.gz
    compensation charges: {type: gauss,
                           rc: 0.37,
                           lmax: 2}
    cutoffs: {filter: 2.17,
              core: 2.59}
    projectors:
      #              energy  rcut
      - 3s(1.00)    -2.819   1.201
      - 2p(6.00)   -28.826   1.217
      - 3p(0.00)    -0.774   1.217
      -  s          24.392   1.201
      -  d           0.000   1.238
  
    # Using partial waves for Na as LCAO basis

Reference energy: -26392.251266  # eV

Spin-paired calculation

Convergence criteria:
 Maximum [total energy] change in last 3 cyles: 0.0005 eV / valence electron
 Maximum integral of absolute [dens]ity change: 0.0001 electrons / valence electron
 Maximum integral of absolute [eigenst]ate change: 4e-08 eV^2 / valence electron
 Maximum number of scf [iter]ations: 333
 (Square brackets indicate name in SCF output, whereas a 'c' in
 the SCF output indicates the quantity has converged.)

Symmetries present (total): 1

  ( 1  0  0)
  ( 0  1  0)
  ( 0  0  1)

1 k-point (Gamma)
1 k-point in the irreducible part of the Brillouin zone
       k-points in crystal coordinates                weights
   0:     0.00000000    0.00000000    0.00000000          1/1

Wave functions: Plane wave expansion
  Cutoff energy: 400.000 eV
  Number of coefficients: 74269 (reduced to 37135)
  Pulay-stress correction: 0.000000 eV/Ang^3 (de/decut=0.000000)
  Using Numpy's FFT
  ScaLapack parameters: grid=1x1, blocksize=None
  Wavefunction extrapolation:
    Improved wavefunction reuse through dual PAW basis 

Occupation numbers: # Zero width 

Eigensolver
   Davidson(niter=2) 

Densities:
  Coarse grid: 75*75*75 grid
  Fine grid: 150*150*150 grid
  Total Charge: 0.000000 

Density mixing:
  Method: separate
  Backend: pulay
  Linear mixing parameter: 0.05
  old densities: 5
  Damping of long wavelength oscillations: 50 

Hamiltonian:
  XC and Coulomb potentials evaluated on a 150*150*150 grid
  Using the LDA Exchange-Correlation functional
  External potential:
    NoExternalPotential
 

Memory estimate:
  Process memory now: 1135.55 MiB
  Calculator: 300.45 MiB
    Density: 194.57 MiB
      Arrays: 83.68 MiB
      Localized functions: 78.70 MiB
      Mixer: 32.19 MiB
    Hamiltonian: 56.32 MiB
      Arrays: 54.72 MiB
      XC: 0.00 MiB
      Poisson: 0.00 MiB
      vbar: 1.61 MiB
    Wavefunctions: 49.56 MiB
      Arrays psit_nG: 17.00 MiB
      Eigensolver: 19.90 MiB
      Projections: 0.02 MiB
      Projectors: 3.97 MiB
      PW-descriptor: 8.68 MiB

Total number of cores used: 1

Number of atoms: 6
Number of atomic orbitals: 42
Number of bands in calculation: 30
Number of valence electrons: 42
Bands to converge: occupied

... initialized

Initializing position-dependent things.

Density initialized from atomic densities
Creating initial wave functions:
  30 bands from LCAO basis set

           .--------------------------------------.  
          /|                                      |  
         / |                                      |  
        /  |                                      |  
       /   |                                      |  
      /    |                                      |  
     /     |                                      |  
    /      |                                      |  
   /       |                                      |  
  /        |                                      |  
 *         |                                      |  
 |         |          Na                          |  
 |         |                                      |  
 |         |       Na      Na                     |  
 |         |                Na                    |  
 |         |                                      |  
 |         |                                      |  
 |         |             Na   Na                  |  
 |         |                                      |  
 |         |                                      |  
 |         .--------------------------------------.  
 |        /                                      /   
 |       /                                      /    
 |      /                                      /     
 |     /                                      /      
 |    /                                      /       
 |   /                                      /        
 |  /                                      /         
 | /                                      /          
 |/                                      /           
 *--------------------------------------*            

Positions:
   0 Na     8.210231    9.489933    8.656516    ( 0.0000,  0.0000,  0.0000)
   1 Na     6.417931    8.101846   10.968460    ( 0.0000,  0.0000,  0.0000)
   2 Na     5.009862    9.947279    8.321395    ( 0.0000,  0.0000,  0.0000)
   3 Na     7.211492    9.790525    5.577356    ( 0.0000,  0.0000,  0.0000)
   4 Na     9.992557    7.848605    6.505352    ( 0.0000,  0.0000,  0.0000)
   5 Na     9.477264    6.754058    9.822530    ( 0.0000,  0.0000,  0.0000)

Unit cell:
           periodic     x           y           z      points  spacing
  1. axis:    no    16.000000    0.000000    0.000000    75     0.2133
  2. axis:    no     0.000000   16.000000    0.000000    75     0.2133
  3. axis:    no     0.000000    0.000000   16.000000    75     0.2133

  Lengths:  16.000000  16.000000  16.000000
  Angles:   90.000000  90.000000  90.000000

Effective grid spacing dv^(1/3) = 0.2133

     iter     time        total  log10-change:
                         energy   eigst   dens
iter:   1 18:55:13    -5.628530
iter:   2 18:55:15    -5.629468   -0.98  -1.31
iter:   3 18:55:17    -5.486632   -1.34  -1.34
iter:   4 18:55:19    -5.476055   -1.82  -1.76
iter:   5 18:55:21    -5.481427c  -2.16  -1.77
iter:   6 18:55:22    -5.485492c  -2.40  -1.94
iter:   7 18:55:24    -5.484051c  -2.83  -2.45
iter:   8 18:55:26    -5.483201c  -3.20  -2.66
iter:   9 18:55:27    -5.483472c  -3.56  -2.87
iter:  10 18:55:29    -5.483051c  -3.80  -2.85
iter:  11 18:55:30    -5.483034c  -4.31  -3.50
iter:  12 18:55:32    -5.483063c  -4.65  -3.55
iter:  13 18:55:34    -5.483037c  -4.96  -3.45
iter:  14 18:55:36    -5.483032c  -5.26  -3.58
iter:  15 18:55:37    -5.483035c  -5.58  -3.66
iter:  16 18:55:39    -5.483027c  -5.74  -3.56
iter:  17 18:55:41    -5.483033c  -6.05  -3.69
iter:  18 18:55:43    -5.483031c  -6.31  -3.74
iter:  19 18:55:45    -5.483041c  -6.37  -3.74
iter:  20 18:55:47    -5.483042c  -6.73  -3.62
iter:  21 18:55:48    -5.483044c  -7.00  -3.71
iter:  22 18:55:50    -5.483042c  -6.61  -3.66
iter:  23 18:55:52    -5.483023c  -6.18  -3.59
iter:  24 18:55:54    -5.483027c  -7.09  -3.79
iter:  25 18:55:55    -5.483027c  -7.68c -3.76
iter:  26 18:55:57    -5.483018c  -5.88  -3.77
iter:  27 18:55:59    -5.483018c  -7.22  -3.93
iter:  28 18:56:01    -5.483019c  -7.74c -3.95
iter:  29 18:56:02    -5.483020c  -6.86  -4.01c
iter:  30 18:56:04    -5.483019c  -7.74c -4.27c

Converged after 30 iterations.

Dipole moment: (-0.064430, -0.102588, -0.043798) |e|*Ang

Energy contributions relative to reference atoms: (reference = -26392.251266)

Kinetic:         +5.249847
Potential:       -4.706871
External:        +0.000000
XC:              -5.783743
Entropy (-ST):   +0.000000
Local:           -0.242252
SIC:             +0.000000
--------------------------
Free energy:     -5.483019
Extrapolated:    -5.483019

 Band  Eigenvalues  Occupancy
    0    -27.94081    2.00000
    1    -27.94012    2.00000
    2    -27.93825    2.00000
    3    -27.93197    2.00000
    4    -27.93063    2.00000
    5    -27.92998    2.00000
    6    -27.92933    2.00000
    7    -27.92778    2.00000
    8    -27.92636    2.00000
    9    -27.92504    2.00000
   10    -27.91678    2.00000
   11    -27.91641    2.00000
   12    -27.90496    2.00000
   13    -27.90449    2.00000
   14    -27.89820    2.00000
   15    -27.83315    2.00000
   16    -27.80454    2.00000
   17    -27.80444    2.00000
   18     -4.10819    2.00000
   19     -2.93522    2.00000
   20     -2.92729    2.00000
   21     -1.77380    0.00000
   22     -1.62225    0.00000
   23     -1.61356    0.00000
   24     -1.32991    0.00000
   25     -0.73649    0.00000
   26     -0.72515    0.00000
   27     -0.36449    0.00000
   28     -0.33633    0.00000
   29     -0.28958    0.00000

Fermi level: -2.35054

Gap: 1.153 eV
Transition (v -> c):
  (s=0, k=0, n=20, [0.00, 0.00, 0.00]) -> (s=0, k=0, n=21, [0.00, 0.00, 0.00])
No difference between direct/indirect transitions

Forces in eV/Ang:
  0 Na    0.00868    0.03148    0.00411
  1 Na    0.00213   -0.00870   -0.01281
  2 Na    0.01030   -0.00896   -0.00294
  3 Na   -0.00214   -0.00737    0.01185
  4 Na   -0.01087   -0.00763    0.00528
  5 Na   -0.00854    0.00032   -0.00580

System changes: positions 

Initializing position-dependent things.

Density initialized from wave functions
           .--------------------------------------.  
          /|                                      |  
         / |                                      |  
        /  |                                      |  
       /   |                                      |  
      /    |                                      |  
     /     |                                      |  
    /      |                                      |  
   /       |                                      |  
  /        |                                      |  
 *         |                                      |  
 |         |          Na                          |  
 |         |                                      |  
 |         |       Na      Na                     |  
 |         |                Na                    |  
 |         |                                      |  
 |         |                                      |  
 |         |             Na   Na                  |  
 |         |                                      |  
 |         |                                      |  
 |         .--------------------------------------.  
 |        /                                      /   
 |       /                                      /    
 |      /                                      /     
 |     /                                      /      
 |    /                                      /       
 |   /                                      /        
 |  /                                      /         
 | /                                      /          
 |/                                      /           
 *--------------------------------------*            

Positions:
   0 Na     8.210355    9.490382    8.656574    ( 0.0000,  0.0000,  0.0000)
   1 Na     6.417961    8.101721   10.968277    ( 0.0000,  0.0000,  0.0000)
   2 Na     5.010009    9.947151    8.321353    ( 0.0000,  0.0000,  0.0000)
   3 Na     7.211462    9.790420    5.577525    ( 0.0000,  0.0000,  0.0000)
   4 Na     9.992402    7.848496    6.505427    ( 0.0000,  0.0000,  0.0000)
   5 Na     9.477142    6.754062    9.822448    ( 0.0000,  0.0000,  0.0000)

Unit cell:
           periodic     x           y           z      points  spacing
  1. axis:    no    16.000000    0.000000    0.000000    75     0.2133
  2. axis:    no     0.000000   16.000000    0.000000    75     0.2133
  3. axis:    no     0.000000    0.000000   16.000000    75     0.2133

  Lengths:  16.000000  16.000000  16.000000
  Angles:   90.000000  90.000000  90.000000

Effective grid spacing dv^(1/3) = 0.2133

     iter     time        total  log10-change:
                         energy   eigst   dens
iter:   1 18:56:07    -5.483048   -6.00
iter:   2 18:56:09    -5.483047   -6.51  -4.27c
iter:   3 18:56:11    -5.483047c  -6.94  -4.31c
iter:   4 18:56:13    -5.483047c  -7.37  -4.84c
iter:   5 18:56:14    -5.483047c  -7.77c -4.85c

Converged after 5 iterations.

Dipole moment: (-0.064585, -0.102784, -0.043922) |e|*Ang

Energy contributions relative to reference atoms: (reference = -26392.251266)

Kinetic:         +5.338079
Potential:       -4.784822
External:        +0.000000
XC:              -5.793943
Entropy (-ST):   +0.000000
Local:           -0.242362
SIC:             +0.000000
--------------------------
Free energy:     -5.483047
Extrapolated:    -5.483047

 Band  Eigenvalues  Occupancy
    0    -27.94033    2.00000
    1    -27.93963    2.00000
    2    -27.93773    2.00000
    3    -27.93152    2.00000
    4    -27.93018    2.00000
    5    -27.92952    2.00000
    6    -27.92882    2.00000
    7    -27.92728    2.00000
    8    -27.92590    2.00000
    9    -27.92457    2.00000
   10    -27.91632    2.00000
   11    -27.91595    2.00000
   12    -27.90449    2.00000
   13    -27.90401    2.00000
   14    -27.89772    2.00000
   15    -27.83166    2.00000
   16    -27.80308    2.00000
   17    -27.80298    2.00000
   18     -4.10884    2.00000
   19     -2.93562    2.00000
   20     -2.92771    2.00000
   21     -1.77427    0.00000
   22     -1.62243    0.00000
   23     -1.61376    0.00000
   24     -1.33031    0.00000
   25     -0.73689    0.00000
   26     -0.72554    0.00000
   27     -0.36461    0.00000
   28     -0.33662    0.00000
   29     -0.29159    0.00000

Fermi level: -2.35099

Gap: 1.153 eV
Transition (v -> c):
  (s=0, k=0, n=20, [0.00, 0.00, 0.00]) -> (s=0, k=0, n=21, [0.00, 0.00, 0.00])
No difference between direct/indirect transitions

Forces in eV/Ang:
  0 Na    0.00968    0.03291    0.00484
  1 Na    0.00129   -0.00901   -0.01122
  2 Na    0.00855   -0.00815   -0.00293
  3 Na   -0.00247   -0.00666    0.01006
  4 Na   -0.00954   -0.00809    0.00418
  5 Na   -0.00750   -0.00090   -0.00495

System changes: positions 

Initializing position-dependent things.

Density initialized from wave functions
           .--------------------------------------.  
          /|                                      |  
         / |                                      |  
        /  |                                      |  
       /   |                                      |  
      /    |                                      |  
     /     |                                      |  
    /      |                                      |  
   /       |                                      |  
  /        |                                      |  
 *         |                                      |  
 |         |          Na                          |  
 |         |                                      |  
 |         |       Na      Na                     |  
 |         |                Na                    |  
 |         |                                      |  
 |         |                                      |  
 |         |             Na   Na                  |  
 |         |                                      |  
 |         |                                      |  
 |         .--------------------------------------.  
 |        /                                      /   
 |       /                                      /    
 |      /                                      /     
 |     /                                      /      
 |    /                                      /       
 |   /                                      /        
 |  /                                      /         
 | /                                      /          
 |/                                      /           
 *--------------------------------------*            

Positions:
   0 Na     8.219111    9.520727    8.660888    ( 0.0000,  0.0000,  0.0000)
   1 Na     6.419404    8.093386   10.957332    ( 0.0000,  0.0000,  0.0000)
   2 Na     5.018500    9.939300    8.318613    ( 0.0000,  0.0000,  0.0000)
   3 Na     7.209249    9.783992    5.587439    ( 0.0000,  0.0000,  0.0000)
   4 Na     9.983103    7.841070    6.509653    ( 0.0000,  0.0000,  0.0000)
   5 Na     9.469834    6.753575    9.817577    ( 0.0000,  0.0000,  0.0000)

Unit cell:
           periodic     x           y           z      points  spacing
  1. axis:    no    16.000000    0.000000    0.000000    75     0.2133
  2. axis:    no     0.000000   16.000000    0.000000    75     0.2133
  3. axis:    no     0.000000    0.000000   16.000000    75     0.2133

  Lengths:  16.000000  16.000000  16.000000
  Angles:   90.000000  90.000000  90.000000

Effective grid spacing dv^(1/3) = 0.2133

     iter     time        total  log10-change:
                         energy   eigst   dens
iter:   1 18:56:17    -5.485697   -3.05
iter:   2 18:56:19    -5.485425   -3.71  -2.62
iter:   3 18:56:21    -5.484641c  -4.11  -2.68
iter:   4 18:56:23    -5.484642c  -4.60  -3.16
iter:   5 18:56:25    -5.484636c  -5.01  -3.21
iter:   6 18:56:26    -5.484630c  -5.38  -3.33
iter:   7 18:56:28    -5.484636c  -5.71  -3.47
iter:   8 18:56:30    -5.484636c  -6.15  -4.20c
iter:   9 18:56:32    -5.484636c  -6.55  -4.24c
iter:  10 18:56:34    -5.484637c  -6.88  -4.39c
iter:  11 18:56:36    -5.484637c  -7.28  -4.74c
iter:  12 18:56:37    -5.484637c  -7.64c -4.78c

Converged after 12 iterations.

Dipole moment: (-0.064979, -0.100164, -0.044909) |e|*Ang

Energy contributions relative to reference atoms: (reference = -26392.251266)

Kinetic:         +5.345753
Potential:       -4.785386
External:        +0.000000
XC:              -5.802634
Entropy (-ST):   +0.000000
Local:           -0.242370
SIC:             +0.000000
--------------------------
Free energy:     -5.484637
Extrapolated:    -5.484637

 Band  Eigenvalues  Occupancy
    0    -27.93667    2.00000
    1    -27.93643    2.00000
    2    -27.93561    2.00000
    3    -27.92761    2.00000
    4    -27.92636    2.00000
    5    -27.92578    2.00000
    6    -27.92543    2.00000
    7    -27.92416    2.00000
    8    -27.92219    2.00000
    9    -27.92131    2.00000
   10    -27.91279    2.00000
   11    -27.91257    2.00000
   12    -27.90084    2.00000
   13    -27.90039    2.00000
   14    -27.89404    2.00000
   15    -27.84744    2.00000
   16    -27.81859    2.00000
   17    -27.81856    2.00000
   18     -4.11346    2.00000
   19     -2.93385    2.00000
   20     -2.92860    2.00000
   21     -1.78676    0.00000
   22     -1.61761    0.00000
   23     -1.60985    0.00000
   24     -1.32828    0.00000
   25     -0.74289    0.00000
   26     -0.73086    0.00000
   27     -0.35718    0.00000
   28     -0.33121    0.00000
   29     -0.28778    0.00000

Fermi level: -2.35768

Gap: 1.142 eV
Transition (v -> c):
  (s=0, k=0, n=20, [0.00, 0.00, 0.00]) -> (s=0, k=0, n=21, [0.00, 0.00, 0.00])
No difference between direct/indirect transitions

Forces in eV/Ang:
  0 Na    0.01539    0.01976    0.01060
  1 Na    0.00272   -0.00690   -0.01048
  2 Na    0.00111   -0.00552   -0.00085
  3 Na   -0.00154   -0.00493    0.00188
  4 Na   -0.00898   -0.00576    0.00542
  5 Na   -0.00842    0.00405   -0.00639

System changes: positions 

Initializing position-dependent things.

Density initialized from wave functions
           .--------------------------------------.  
          /|                                      |  
         / |                                      |  
        /  |                                      |  
       /   |                                      |  
      /    |                                      |  
     /     |                                      |  
    /      |                                      |  
   /       |                                      |  
  /        |                                      |  
 *         |                                      |  
 |         |          Na                          |  
 |         |                                      |  
 |         |       Na      Na                     |  
 |         |                Na                    |  
 |         |                                      |  
 |         |                                      |  
 |         |             Na   Na                  |  
 |         |                                      |  
 |         |                                      |  
 |         .--------------------------------------.  
 |        /                                      /   
 |       /                                      /    
 |      /                                      /     
 |     /                                      /      
 |    /                                      /       
 |   /                                      /        
 |  /                                      /         
 | /                                      /          
 |/                                      /           
 *--------------------------------------*            

Positions:
   0 Na     8.240969    9.594861    8.671800    ( 0.0000,  0.0000,  0.0000)
   1 Na     6.423029    8.072950   10.930401    ( 0.0000,  0.0000,  0.0000)
   2 Na     5.039056    9.920084    8.311965    ( 0.0000,  0.0000,  0.0000)
   3 Na     7.203841    9.768237    5.611466    ( 0.0000,  0.0000,  0.0000)
   4 Na     9.960219    7.822883    6.520125    ( 0.0000,  0.0000,  0.0000)
   5 Na     9.451784    6.752614    9.805505    ( 0.0000,  0.0000,  0.0000)

Unit cell:
           periodic     x           y           z      points  spacing
  1. axis:    no    16.000000    0.000000    0.000000    75     0.2133
  2. axis:    no     0.000000   16.000000    0.000000    75     0.2133
  3. axis:    no     0.000000    0.000000   16.000000    75     0.2133

  Lengths:  16.000000  16.000000  16.000000
  Angles:   90.000000  90.000000  90.000000

Effective grid spacing dv^(1/3) = 0.2133

     iter     time        total  log10-change:
                         energy   eigst   dens
iter:   1 18:56:40    -5.492339   -2.27
iter:   2 18:56:42    -5.490798   -2.93  -2.24
iter:   3 18:56:44    -5.486284c  -3.33  -2.30
iter:   4 18:56:46    -5.486304c  -3.83  -2.77
iter:   5 18:56:47    -5.486269c  -4.23  -2.81
iter:   6 18:56:49    -5.486229c  -4.60  -2.93
iter:   7 18:56:51    -5.486260c  -4.93  -3.08
iter:   8 18:56:53    -5.486264c  -5.36  -3.79
iter:   9 18:56:54    -5.486263c  -5.76  -3.84
iter:  10 18:56:56    -5.486265c  -6.10  -4.04c
iter:  11 18:56:58    -5.486265c  -6.49  -4.36c
iter:  12 18:57:00    -5.486265c  -6.85  -4.39c
iter:  13 18:57:01    -5.486265c  -7.19  -4.55c
iter:  14 18:57:03    -5.486265c  -7.55c -4.75c

Converged after 14 iterations.

Dipole moment: (-0.064690, -0.092049, -0.046367) |e|*Ang

Energy contributions relative to reference atoms: (reference = -26392.251266)

Kinetic:         +5.397392
Potential:       -4.816475
External:        +0.000000
XC:              -5.824830
Entropy (-ST):   +0.000000
Local:           -0.242353
SIC:             +0.000000
--------------------------
Free energy:     -5.486265
Extrapolated:    -5.486265

 Band  Eigenvalues  Occupancy
    0    -27.93322    2.00000
    1    -27.93042    2.00000
    2    -27.92990    2.00000
    3    -27.91894    2.00000
    4    -27.91801    2.00000
    5    -27.91695    2.00000
    6    -27.91608    2.00000
    7    -27.91538    2.00000
    8    -27.91340    2.00000
    9    -27.91312    2.00000
   10    -27.90422    2.00000
   11    -27.90393    2.00000
   12    -27.89213    2.00000
   13    -27.89139    2.00000
   14    -27.88550    2.00000
   15    -27.88485    2.00000
   16    -27.85692    2.00000
   17    -27.85663    2.00000
   18     -4.12462    2.00000
   19     -2.93081    2.00000
   20     -2.92915    2.00000
   21     -1.81822    0.00000
   22     -1.60592    0.00000
   23     -1.60020    0.00000
   24     -1.32353    0.00000
   25     -0.75798    0.00000
   26     -0.74379    0.00000
   27     -0.33917    0.00000
   28     -0.31772    0.00000
   29     -0.27445    0.00000

Fermi level: -2.37368

Gap: 1.111 eV
Transition (v -> c):
  (s=0, k=0, n=20, [0.00, 0.00, 0.00]) -> (s=0, k=0, n=21, [0.00, 0.00, 0.00])
No difference between direct/indirect transitions

Forces in eV/Ang:
  0 Na    0.02631   -0.01254    0.02212
  1 Na    0.00543   -0.00102   -0.00880
  2 Na   -0.01649    0.00012    0.00511
  3 Na    0.00179   -0.00162   -0.01767
  4 Na   -0.00802    0.00075    0.00778
  5 Na   -0.00951    0.01493   -0.00905

System changes: positions 

Initializing position-dependent things.

Density initialized from wave functions
           .--------------------------------------.  
          /|                                      |  
         / |                                      |  
        /  |                                      |  
       /   |                                      |  
      /    |                                      |  
     /     |                                      |  
    /      |                                      |  
   /       |                                      |  
  /        |                                      |  
 *         |                                      |  
 |         |          Na                          |  
 |         |                                      |  
 |         |       Na      Na                     |  
 |         |                Na                    |  
 |         |                                      |  
 |         |                                      |  
 |         |             Na   Na                  |  
 |         |                                      |  
 |         |                                      |  
 |         .--------------------------------------.  
 |        /                                      /   
 |       /                                      /    
 |      /                                      /     
 |     /                                      /      
 |    /                                      /       
 |   /                                      /        
 |  /                                      /         
 | /                                      /          
 |/                                      /           
 *--------------------------------------*            

Positions:
   0 Na     8.240825    9.592963    8.671853    ( 0.0000,  0.0000,  0.0000)
   1 Na     6.423021    8.073411   10.930902    ( 0.0000,  0.0000,  0.0000)
   2 Na     5.038353    9.920530    8.312190    ( 0.0000,  0.0000,  0.0000)
   3 Na     7.203992    9.768579    5.610666    ( 0.0000,  0.0000,  0.0000)
   4 Na     9.960636    7.823317    6.519992    ( 0.0000,  0.0000,  0.0000)
   5 Na     9.452068    6.752846    9.805658    ( 0.0000,  0.0000,  0.0000)

Unit cell:
           periodic     x           y           z      points  spacing
  1. axis:    no    16.000000    0.000000    0.000000    75     0.2133
  2. axis:    no     0.000000   16.000000    0.000000    75     0.2133
  3. axis:    no     0.000000    0.000000   16.000000    75     0.2133

  Lengths:  16.000000  16.000000  16.000000
  Angles:   90.000000  90.000000  90.000000

Effective grid spacing dv^(1/3) = 0.2133

     iter     time        total  log10-change:
                         energy   eigst   dens
iter:   1 18:57:07    -5.486308   -5.40
iter:   2 18:57:08    -5.486306   -6.05  -3.72
iter:   3 18:57:10    -5.486301c  -6.45  -3.80
iter:   4 18:57:12    -5.486301c  -6.92  -4.32c
iter:   5 18:57:14    -5.486300c  -7.32  -4.40c
iter:   6 18:57:16    -5.486300c  -7.70c -4.55c

Converged after 6 iterations.

Dipole moment: (-0.064793, -0.092464, -0.046423) |e|*Ang

Energy contributions relative to reference atoms: (reference = -26392.251266)

Kinetic:         +5.404070
Potential:       -4.822241
External:        +0.000000
XC:              -5.825620
Entropy (-ST):   +0.000000
Local:           -0.242509
SIC:             +0.000000
--------------------------
Free energy:     -5.486300
Extrapolated:    -5.486300

 Band  Eigenvalues  Occupancy
    0    -27.93309    2.00000
    1    -27.93016    2.00000
    2    -27.92965    2.00000
    3    -27.91880    2.00000
    4    -27.91800    2.00000
    5    -27.91680    2.00000
    6    -27.91594    2.00000
    7    -27.91509    2.00000
    8    -27.91322    2.00000
    9    -27.91295    2.00000
   10    -27.90403    2.00000
   11    -27.90381    2.00000
   12    -27.89202    2.00000
   13    -27.89115    2.00000
   14    -27.88481    2.00000
   15    -27.88471    2.00000
   16    -27.85621    2.00000
   17    -27.85589    2.00000
   18     -4.12420    2.00000
   19     -2.93065    2.00000
   20     -2.92907    2.00000
   21     -1.81740    0.00000
   22     -1.60612    0.00000
   23     -1.60023    0.00000
   24     -1.32353    0.00000
   25     -0.75756    0.00000
   26     -0.74338    0.00000
   27     -0.33946    0.00000
   28     -0.31791    0.00000
   29     -0.27525    0.00000

Fermi level: -2.37323

Gap: 1.112 eV
Transition (v -> c):
  (s=0, k=0, n=20, [0.00, 0.00, 0.00]) -> (s=0, k=0, n=21, [0.00, 0.00, 0.00])
No difference between direct/indirect transitions

Forces in eV/Ang:
  0 Na    0.02575   -0.01090    0.02146
  1 Na    0.00555   -0.00109   -0.00912
  2 Na   -0.01528   -0.00045    0.00515
  3 Na    0.00202   -0.00207   -0.01639
  4 Na   -0.00831    0.00073    0.00799
  5 Na   -0.00953    0.01490   -0.00897

System changes: positions 

Initializing position-dependent things.

Density initialized from wave functions
           .--------------------------------------.  
          /|                                      |  
         / |                                      |  
        /  |                                      |  
       /   |                                      |  
      /    |                                      |  
     /     |                                      |  
    /      |                                      |  
   /       |                                      |  
  /        |                                      |  
 *         |                                      |  
 |         |          Na                          |  
 |         |                                      |  
 |         |       Na      Na                     |  
 |         |                Na                    |  
 |         |                                      |  
 |         |                                      |  
 |         |             Na   Na                  |  
 |         |                                      |  
 |         |                                      |  
 |         .--------------------------------------.  
 |        /                                      /   
 |       /                                      /    
 |      /                                      /     
 |     /                                      /      
 |    /                                      /       
 |   /                                      /        
 |  /                                      /         
 | /                                      /          
 |/                                      /           
 *--------------------------------------*            

Positions:
   0 Na     8.246723    9.585672    8.677197    ( 0.0000,  0.0000,  0.0000)
   1 Na     6.424342    8.074237   10.929876    ( 0.0000,  0.0000,  0.0000)
   2 Na     5.032929    9.921517    8.313943    ( 0.0000,  0.0000,  0.0000)
   3 Na     7.204802    9.768921    5.604743    ( 0.0000,  0.0000,  0.0000)
   4 Na     9.959617    7.824512    6.521598    ( 0.0000,  0.0000,  0.0000)
   5 Na     9.450418    6.756995    9.803827    ( 0.0000,  0.0000,  0.0000)

Unit cell:
           periodic     x           y           z      points  spacing
  1. axis:    no    16.000000    0.000000    0.000000    75     0.2133
  2. axis:    no     0.000000   16.000000    0.000000    75     0.2133
  3. axis:    no     0.000000    0.000000   16.000000    75     0.2133

  Lengths:  16.000000  16.000000  16.000000
  Angles:   90.000000  90.000000  90.000000

Effective grid spacing dv^(1/3) = 0.2133

     iter     time        total  log10-change:
                         energy   eigst   dens
iter:   1 18:57:19    -5.487372   -3.84
iter:   2 18:57:20    -5.487165   -4.49  -2.82
iter:   3 18:57:22    -5.486778c  -4.84  -2.92
iter:   4 18:57:24    -5.486781c  -5.34  -3.56
iter:   5 18:57:26    -5.486782c  -5.74  -3.63
iter:   6 18:57:27    -5.486782c  -6.10  -3.76
iter:   7 18:57:29    -5.486783c  -6.52  -4.08c
iter:   8 18:57:31    -5.486783c  -6.92  -4.54c
iter:   9 18:57:32    -5.486783c  -7.33  -4.80c
iter:  10 18:57:34    -5.486783c  -7.73c -5.15c

Converged after 10 iterations.

Dipole moment: (-0.064012, -0.093244, -0.045614) |e|*Ang

Energy contributions relative to reference atoms: (reference = -26392.251266)

Kinetic:         +5.396768
Potential:       -4.817274
External:        +0.000000
XC:              -5.823893
Entropy (-ST):   +0.000000
Local:           -0.242383
SIC:             +0.000000
--------------------------
Free energy:     -5.486783
Extrapolated:    -5.486783

 Band  Eigenvalues  Occupancy
    0    -27.93256    2.00000
    1    -27.93042    2.00000
    2    -27.93002    2.00000
    3    -27.91924    2.00000
    4    -27.91786    2.00000
    5    -27.91730    2.00000
    6    -27.91626    2.00000
    7    -27.91542    2.00000
    8    -27.91350    2.00000
    9    -27.91328    2.00000
   10    -27.90424    2.00000
   11    -27.90418    2.00000
   12    -27.89226    2.00000
   13    -27.89155    2.00000
   14    -27.88504    2.00000
   15    -27.88392    2.00000
   16    -27.85524    2.00000
   17    -27.85499    2.00000
   18     -4.12397    2.00000
   19     -2.93023    2.00000
   20     -2.92973    2.00000
   21     -1.81685    0.00000
   22     -1.60779    0.00000
   23     -1.59917    0.00000
   24     -1.32368    0.00000
   25     -0.75701    0.00000
   26     -0.74342    0.00000
   27     -0.34025    0.00000
   28     -0.31722    0.00000
   29     -0.27648    0.00000

Fermi level: -2.37329

Gap: 1.113 eV
Transition (v -> c):
  (s=0, k=0, n=20, [0.00, 0.00, 0.00]) -> (s=0, k=0, n=21, [0.00, 0.00, 0.00])
No difference between direct/indirect transitions

Forces in eV/Ang:
  0 Na    0.01444   -0.00087    0.01187
  1 Na    0.00165   -0.00144   -0.00685
  2 Na   -0.00566   -0.00182    0.00276
  3 Na    0.00168   -0.00262   -0.00634
  4 Na   -0.00668   -0.00014    0.00352
  5 Na   -0.00487    0.00643   -0.00463

System changes: positions 

Initializing position-dependent things.

Density initialized from wave functions
           .--------------------------------------.  
          /|                                      |  
         / |                                      |  
        /  |                                      |  
       /   |                                      |  
      /    |                                      |  
     /     |                                      |  
    /      |                                      |  
   /       |                                      |  
  /        |                                      |  
 *         |                                      |  
 |         |          Na                          |  
 |         |                                      |  
 |         |       Na      Na                     |  
 |         |                Na                    |  
 |         |                                      |  
 |         |                                      |  
 |         |             Na   Na                  |  
 |         |                                      |  
 |         |                                      |  
 |         .--------------------------------------.  
 |        /                                      /   
 |       /                                      /    
 |      /                                      /     
 |     /                                      /      
 |    /                                      /       
 |   /                                      /        
 |  /                                      /         
 | /                                      /          
 |/                                      /           
 *--------------------------------------*            

Positions:
   0 Na     8.255161    9.587707    8.683758    ( 0.0000,  0.0000,  0.0000)
   1 Na     6.426029    8.072518   10.925547    ( 0.0000,  0.0000,  0.0000)
   2 Na     5.030189    9.920111    8.314826    ( 0.0000,  0.0000,  0.0000)
   3 Na     7.204929    9.767308    5.601936    ( 0.0000,  0.0000,  0.0000)
   4 Na     9.955782    7.823434    6.524410    ( 0.0000,  0.0000,  0.0000)
   5 Na     9.446611    6.760866    9.800570    ( 0.0000,  0.0000,  0.0000)

Unit cell:
           periodic     x           y           z      points  spacing
  1. axis:    no    16.000000    0.000000    0.000000    75     0.2133
  2. axis:    no     0.000000   16.000000    0.000000    75     0.2133
  3. axis:    no     0.000000    0.000000   16.000000    75     0.2133

  Lengths:  16.000000  16.000000  16.000000
  Angles:   90.000000  90.000000  90.000000

Effective grid spacing dv^(1/3) = 0.2133

     iter     time        total  log10-change:
                         energy   eigst   dens
iter:   1 18:57:37    -5.487425   -3.86
iter:   2 18:57:39    -5.487292   -4.51  -2.88
iter:   3 18:57:41    -5.487027c  -4.89  -2.97
iter:   4 18:57:42    -5.487029c  -5.37  -3.53
iter:   5 18:57:44    -5.487028c  -5.77  -3.61
iter:   6 18:57:46    -5.487028c  -6.15  -3.76
iter:   7 18:57:48    -5.487029c  -6.51  -3.92
iter:   8 18:57:50    -5.487029c  -6.96  -4.53c
iter:   9 18:57:51    -5.487029c  -7.33  -4.57c
iter:  10 18:57:53    -5.487029c  -7.75c -5.03c

Converged after 10 iterations.

Dipole moment: (-0.063055, -0.093226, -0.044909) |e|*Ang

Energy contributions relative to reference atoms: (reference = -26392.251266)

Kinetic:         +5.398194
Potential:       -4.817460
External:        +0.000000
XC:              -5.825378
Entropy (-ST):   +0.000000
Local:           -0.242385
SIC:             +0.000000
--------------------------
Free energy:     -5.487029
Extrapolated:    -5.487029

 Band  Eigenvalues  Occupancy
    0    -27.93211    2.00000
    1    -27.93020    2.00000
    2    -27.92982    2.00000
    3    -27.91877    2.00000
    4    -27.91696    2.00000
    5    -27.91618    2.00000
    6    -27.91520    2.00000
    7    -27.91415    2.00000
    8    -27.91264    2.00000
    9    -27.91222    2.00000
   10    -27.90333    2.00000
   11    -27.90308    2.00000
   12    -27.89134    2.00000
   13    -27.89060    2.00000
   14    -27.88751    2.00000
   15    -27.88384    2.00000
   16    -27.85905    2.00000
   17    -27.85881    2.00000
   18     -4.12494    2.00000
   19     -2.92998    2.00000
   20     -2.92949    2.00000
   21     -1.82016    0.00000
   22     -1.60799    0.00000
   23     -1.59663    0.00000
   24     -1.32315    0.00000
   25     -0.75823    0.00000
   26     -0.74491    0.00000
   27     -0.33870    0.00000
   28     -0.31476    0.00000
   29     -0.27548    0.00000

Fermi level: -2.37483

Gap: 1.109 eV
Transition (v -> c):
  (s=0, k=0, n=20, [0.00, 0.00, 0.00]) -> (s=0, k=0, n=21, [0.00, 0.00, 0.00])
No difference between direct/indirect transitions

Forces in eV/Ang:
  0 Na    0.00452    0.00498    0.00372
  1 Na   -0.00151   -0.00055   -0.00467
  2 Na    0.00159   -0.00212    0.00123
  3 Na    0.00177   -0.00240    0.00112
  4 Na   -0.00514    0.00031   -0.00015
  5 Na   -0.00057    0.00014   -0.00084

Timing:                                      incl.     excl.
-------------------------------------------------------------------
Density initialized from wave functions:     1.844     1.844   1.1% |
 Symmetrize density:                         0.000     0.000   0.0% |
Forces:                                      6.827     6.827   4.2% |-|
Hamiltonian:                                 2.819     0.051   0.0% |
 Atomic:                                     0.197     0.003   0.0% |
  XC Correction:                             0.195     0.195   0.1% |
 Calculate atomic Hamiltonians:              1.140     1.140   0.7% |
 Communicate:                                0.000     0.000   0.0% |
 Initialize Hamiltonian:                     0.002     0.002   0.0% |
 Poisson:                                    0.027     0.027   0.0% |
 XC 3D grid:                                 1.402     1.402   0.9% |
LCAO initialization:                         0.223     0.011   0.0% |
 LCAO eigensolver:                           0.029     0.000   0.0% |
  Calculate projections:                     0.000     0.000   0.0% |
  DenseAtomicCorrection:                     0.000     0.000   0.0% |
  Distribute overlap matrix:                 0.000     0.000   0.0% |
  Orbital Layouts:                           0.000     0.000   0.0% |
  Potential matrix:                          0.028     0.028   0.0% |
 LCAO to grid:                               0.175     0.175   0.1% |
 Set positions (LCAO WFS):                   0.008     0.002   0.0% |
  Basic WFS set positions:                   0.000     0.000   0.0% |
  Basis functions set positions:             0.000     0.000   0.0% |
  P tci:                                     0.005     0.005   0.0% |
  ST tci:                                    0.001     0.001   0.0% |
  mktci:                                     0.001     0.001   0.0% |
PWDescriptor:                                0.008     0.008   0.0% |
Redistribute:                                0.002     0.002   0.0% |
SCF-cycle:                                 148.947     0.036   0.0% |
 Davidson:                                  93.404     7.839   4.8% |-|
  Apply H:                                  20.078    19.920  12.2% |----|
   HMM T:                                    0.158     0.158   0.1% |
  Subspace diag:                            21.192     0.004   0.0% |
   calc_h_matrix:                           20.523     0.468   0.3% |
    Apply H:                                20.055    19.900  12.2% |----|
     HMM T:                                  0.155     0.155   0.1% |
   diagonalize:                              0.020     0.020   0.0% |
   rotate_psi:                               0.645     0.645   0.4% |
  calc. matrices:                           43.112     3.220   2.0% ||
   Apply H:                                 39.892    39.541  24.3% |---------|
    HMM T:                                   0.351     0.351   0.2% |
  diagonalize:                               0.128     0.128   0.1% |
  rotate_psi:                                1.056     1.056   0.6% |
 Density:                                   24.538     0.001   0.0% |
  Atomic density matrices:                   0.030     0.030   0.0% |
  Mix:                                      13.959    13.959   8.6% |--|
  Multipole moments:                         0.006     0.006   0.0% |
  Pseudo density:                           10.541    10.541   6.5% |--|
   Symmetrize density:                       0.000     0.000   0.0% |
 Hamiltonian:                               30.791     0.581   0.4% |
  Atomic:                                    2.324     0.032   0.0% |
   XC Correction:                            2.292     2.292   1.4% ||
  Calculate atomic Hamiltonians:            11.619    11.619   7.1% |--|
  Communicate:                               0.000     0.000   0.0% |
  Poisson:                                   0.282     0.282   0.2% |
  XC 3D grid:                               15.985    15.985   9.8% |---|
 Orthonormalize:                             0.178     0.000   0.0% |
  calc_s_matrix:                             0.031     0.031   0.0% |
  inverse-cholesky:                          0.001     0.001   0.0% |
  projections:                               0.116     0.116   0.1% |
  rotate_psi_s:                              0.029     0.029   0.0% |
Set symmetry:                                0.000     0.000   0.0% |
Other:                                       2.153     2.153   1.3% ||
-------------------------------------------------------------------
Total:                                               162.823 100.0%

Memory usage: 1.54 GiB
Date: Sun Feb 16 18:57:54 2025
