6
Lattice="16.0 0.0 0.0 0.0 16.0 0.0 0.0 0.0 16.0" Properties=species:S:1:pos:R:3:magmoms:R:1:forces:R:3 energy=-4.970432437355423 free_energy=-4.970432437355423 dipole="0.04386708343311569 -0.021752363690971707 0.056185859753177136" magmom=0.0 pbc="F F F"
Na      11.50227483       4.97688708       9.69509057       0.00000000      -0.00183850       0.00101976      -0.00166483
Na       9.10468307       7.12221456      10.75876781       0.00000000      -0.00530157       0.00276003      -0.00450484
Na       6.64642723       9.32702022      11.58734810       0.00000000      -0.00312990       0.00012795      -0.00141996
Na       7.65136581       8.02664682       5.00480117       0.00000000      -0.00271983      -0.00154482       0.00157229
Na       9.64194379       6.44161653       7.25688794       0.00000000      -0.00487050       0.00315167       0.00072841
Na       7.02309006       8.72332146       8.27695584       0.00000000       0.00767673      -0.00007625      -0.00417574
