6
Lattice="16.0 0.0 0.0 0.0 16.0 0.0 0.0 0.0 16.0" Properties=species:S:1:pos:R:3:magmoms:R:1:forces:R:3 energy=-5.016635419022217 free_energy=-5.016635419022217 dipole="-0.09030558287435622 -0.09899093067664579 -0.03168872309602027" magmom=0.0 pbc="F F F"
Na       8.27232429       9.61172688       8.69137565       0.00000000       0.00521519       0.00839752       0.00028492
Na       6.38565925       8.07401999      11.00424885       0.00000000      -0.00538630      -0.00369555       0.00054215
Na       4.95945916       9.96433460       8.30948836       0.00000000      -0.00490265       0.00023380      -0.00124657
Na       7.19124338       9.80149558       5.51333015       0.00000000       0.00300878      -0.00368761      -0.00354737
Na      10.02532875       7.80172887       6.48117610       0.00000000       0.00257201      -0.00378219      -0.00563999
Na       9.50188562       6.70732107       9.85665103       0.00000000      -0.00139955      -0.00144676       0.00012803
