
  ___ ___ ___ _ _ _  
 |   |   |_  | | | | 
 | | | | | . | | | | 
 |__ |  _|___|_____|  25.1.0
 |___|_|             

User:   zoe@dhcp-140-94.vpn.chalmers.se
Date:   Sun Feb 16 20:14:42 2025
Arch:   arm64
Pid:    62351
CWD:    /Users/zoe/Documents/GitHub/TIF320_Computitional_Materials_and_Molecular_Physics
Python: 3.12.2
gpaw:   /opt/anaconda3/envs/tif320env/lib/python3.12/site-packages/gpaw
_gpaw:  /opt/anaconda3/envs/tif320env/lib/python3.12/site-packages/
        _gpaw.cpython-312-darwin.so
ase:    /opt/anaconda3/envs/tif320env/lib/python3.12/site-packages/ase (version 3.24.0)
numpy:  /opt/anaconda3/envs/tif320env/lib/python3.12/site-packages/numpy (version 2.0.1)
scipy:  /opt/anaconda3/envs/tif320env/lib/python3.12/site-packages/scipy (version 1.15.1)
libxc:  7.0.0
units:  Angstrom and eV
cores: 1
OpenMP: False
OMP_NUM_THREADS: 1

Input parameters:
  mode: {ecut: 350.0,
         name: pw}
  xc: PBE

System changes: positions, numbers, cell, pbc, initial_charges, initial_magmoms 

Initialize ...

species:
  Na:
    name: Sodium
    id: d7ecbc49209718622bcbe287195dca2a
    Z: 11.0
    valence: 7
    core: 4
    charge: 0.0
    file: /opt/anaconda3/envs/tif320env/gpaw-setups/gpaw-setups-24.11.0/Na.PBE.gz
    compensation charges: {type: gauss,
                           rc: 0.37,
                           lmax: 2}
    cutoffs: {filter: 2.17,
              core: 2.59}
    projectors:
      #              energy  rcut
      - 3s(1.00)    -2.744   1.201
      - 2p(6.00)   -28.672   1.217
      - 3p(0.00)    -0.743   1.217
      -  s          24.468   1.201
      -  d           0.000   1.238
  
    # Using partial waves for Na as LCAO basis

Reference energy: -26511.662986  # eV

Spin-paired calculation

Convergence criteria:
 Maximum [total energy] change in last 3 cyles: 0.0005 eV / valence electron
 Maximum integral of absolute [dens]ity change: 0.0001 electrons / valence electron
 Maximum integral of absolute [eigenst]ate change: 4e-08 eV^2 / valence electron
 Maximum number of scf [iter]ations: 333
 (Square brackets indicate name in SCF output, whereas a 'c' in
 the SCF output indicates the quantity has converged.)

Symmetries present (total): 1

  ( 1  0  0)
  ( 0  1  0)
  ( 0  0  1)

1 k-point (Gamma)
1 k-point in the irreducible part of the Brillouin zone
       k-points in crystal coordinates                weights
   0:     0.00000000    0.00000000    0.00000000          1/1

Wave functions: Plane wave expansion
  Cutoff energy: 350.000 eV
  Number of coefficients: 61037 (reduced to 30519)
  Pulay-stress correction: 0.000000 eV/Ang^3 (de/decut=0.000000)
  Using Numpy's FFT
  ScaLapack parameters: grid=1x1, blocksize=None
  Wavefunction extrapolation:
    Improved wavefunction reuse through dual PAW basis 

Occupation numbers: # Zero width 

Eigensolver
   Davidson(niter=2) 

Densities:
  Coarse grid: 70*70*70 grid
  Fine grid: 140*140*140 grid
  Total Charge: 0.000000 

Density mixing:
  Method: separate
  Backend: pulay
  Linear mixing parameter: 0.05
  old densities: 5
  Damping of long wavelength oscillations: 50 

Hamiltonian:
  XC and Coulomb potentials evaluated on a 140*140*140 grid
  Using the PBE Exchange-Correlation functional
  External potential:
    NoExternalPotential
 

XC parameters: PBE with 2 nearest neighbor stencil

Memory estimate:
  Process memory now: 251.16 MiB
  Calculator: 245.12 MiB
    Density: 158.58 MiB
      Arrays: 68.04 MiB
      Localized functions: 64.38 MiB
      Mixer: 26.17 MiB
    Hamiltonian: 45.80 MiB
      Arrays: 44.49 MiB
      XC: 0.00 MiB
      Poisson: 0.00 MiB
      vbar: 1.31 MiB
    Wavefunctions: 40.74 MiB
      Arrays psit_nG: 13.97 MiB
      Eigensolver: 16.37 MiB
      Projections: 0.02 MiB
      Projectors: 3.26 MiB
      PW-descriptor: 7.12 MiB

Total number of cores used: 1

Number of atoms: 6
Number of atomic orbitals: 42
Number of bands in calculation: 30
Number of valence electrons: 42
Bands to converge: occupied

... initialized

Initializing position-dependent things.

Density initialized from atomic densities
Creating initial wave functions:
  30 bands from LCAO basis set

           .--------------------------------------.  
          /|                                      |  
         / |                                      |  
        /  |                                      |  
       /   |                                      |  
      /    |                                      |  
     /     |                                      |  
    /      |                                      |  
   /       |                                      |  
  /        |                                      |  
 *         |                                      |  
 |         |                                      |  
 |         |                                      |  
 |         |                                      |  
 |         |     Na                               |  
 |         |            Na     Na                 |  
 |         |          Na                          |  
 |         |                  Na                  |  
 |         |                Na                    |  
 |         |                                      |  
 |         .--------------------------------------.  
 |        /                                      /   
 |       /                                      /    
 |      /                                      /     
 |     /                                      /      
 |    /                                      /       
 |   /                                      /        
 |  /                                      /         
 | /                                      /          
 |/                                      /           
 *--------------------------------------*            

Positions:
   0 Na     6.651684   10.369658    7.188865    ( 0.0000,  0.0000,  0.0000)
   1 Na     9.529007    8.688416    5.994811    ( 0.0000,  0.0000,  0.0000)
   2 Na     9.112434   11.946421    5.662676    ( 0.0000,  0.0000,  0.0000)
   3 Na     4.352978    8.527954    8.672239    ( 0.0000,  0.0000,  0.0000)
   4 Na     7.015449    6.878244    7.670255    ( 0.0000,  0.0000,  0.0000)
   5 Na     9.736387    5.447202    6.506355    ( 0.0000,  0.0000,  0.0000)

Unit cell:
           periodic     x           y           z      points  spacing
  1. axis:    no    16.000000    0.000000    0.000000    70     0.2286
  2. axis:    no     0.000000   16.000000    0.000000    70     0.2286
  3. axis:    no     0.000000    0.000000   16.000000    70     0.2286

  Lengths:  16.000000  16.000000  16.000000
  Angles:   90.000000  90.000000  90.000000

Effective grid spacing dv^(1/3) = 0.2286

     iter     time        total  log10-change:
                         energy   eigst   dens
iter:   1 20:14:45    -4.972996
iter:   2 20:14:47    -4.995679   -1.17  -1.36
iter:   3 20:14:49    -4.925984   -1.55  -1.38
iter:   4 20:14:51    -4.924899   -1.98  -1.71
iter:   5 20:14:53    -4.931090c  -2.19  -1.73
iter:   6 20:14:55    -4.933051c  -2.58  -2.25
iter:   7 20:14:57    -4.933109c  -3.02  -2.56
iter:   8 20:14:59    -4.932147c  -3.29  -2.57
iter:   9 20:15:01    -4.932294c  -3.73  -2.88
iter:  10 20:15:03    -4.932316c  -4.14  -3.17
iter:  11 20:15:05    -4.932337c  -4.51  -3.18
iter:  12 20:15:06    -4.932353c  -4.76  -3.26
iter:  13 20:15:08    -4.932351c  -5.17  -3.40
iter:  14 20:15:10    -4.932327c  -5.46  -3.45
iter:  15 20:15:12    -4.932331c  -5.89  -3.75
iter:  16 20:15:14    -4.932332c  -6.27  -3.75
iter:  17 20:15:16    -4.932330c  -6.45  -3.73
iter:  18 20:15:18    -4.932331c  -6.79  -3.82
iter:  19 20:15:21    -4.932331c  -7.10  -3.91
iter:  20 20:15:23    -4.932331c  -7.14  -4.03c
iter:  21 20:15:25    -4.932330c  -7.64c -4.17c

Converged after 21 iterations.

Dipole moment: (-0.024928, 0.012102, 0.002949) |e|*Ang

Energy contributions relative to reference atoms: (reference = -26511.662986)

Kinetic:         +6.249506
Potential:       -5.708385
External:        +0.000000
XC:              -5.304590
Entropy (-ST):   +0.000000
Local:           -0.168861
SIC:             +0.000000
--------------------------
Free energy:     -4.932330
Extrapolated:    -4.932330

 Band  Eigenvalues  Occupancy
    0    -27.82971    2.00000
    1    -27.82759    2.00000
    2    -27.82750    2.00000
    3    -27.82637    2.00000
    4    -27.82489    2.00000
    5    -27.82396    2.00000
    6    -27.82377    2.00000
    7    -27.82370    2.00000
    8    -27.82111    2.00000
    9    -27.73319    2.00000
   10    -27.72399    2.00000
   11    -27.71882    2.00000
   12    -27.71631    2.00000
   13    -27.71610    2.00000
   14    -27.71267    2.00000
   15    -27.68243    2.00000
   16    -27.67811    2.00000
   17    -27.67360    2.00000
   18     -3.89581    2.00000
   19     -2.89696    2.00000
   20     -2.89279    2.00000
   21     -1.65843    0.00000
   22     -1.52809    0.00000
   23     -1.50583    0.00000
   24     -1.32862    0.00000
   25     -0.59126    0.00000
   26     -0.56784    0.00000
   27     -0.53380    0.00000
   28     -0.48845    0.00000
   29     -0.36797    0.00000

Fermi level: -2.27561

Gap: 1.234 eV
Transition (v -> c):
  (s=0, k=0, n=20, [0.00, 0.00, 0.00]) -> (s=0, k=0, n=21, [0.00, 0.00, 0.00])
No difference between direct/indirect transitions
Writing to ./A2/task10_Na6_wavefunctions.gpw (mode='all')

Timing:                              incl.     excl.
-----------------------------------------------------------
Hamiltonian:                         0.756     0.006   0.0% |
 Atomic:                             0.130     0.001   0.0% |
  XC Correction:                     0.130     0.130   0.1% |
 Calculate atomic Hamiltonians:      0.149     0.149   0.1% |
 Communicate:                        0.000     0.000   0.0% |
 Initialize Hamiltonian:             0.001     0.001   0.0% |
 Poisson:                            0.006     0.006   0.0% |
 XC 3D grid:                         0.465     0.465   0.3% |
LCAO initialization:                 0.198     0.011   0.0% |
 LCAO eigensolver:                   0.025     0.000   0.0% |
  Calculate projections:             0.000     0.000   0.0% |
  DenseAtomicCorrection:             0.000     0.000   0.0% |
  Distribute overlap matrix:         0.000     0.000   0.0% |
  Orbital Layouts:                   0.002     0.002   0.0% |
  Potential matrix:                  0.022     0.022   0.0% |
 LCAO to grid:                       0.153     0.153   0.1% |
 Set positions (LCAO WFS):           0.010     0.001   0.0% |
  Basic WFS set positions:           0.000     0.000   0.0% |
  Basis functions set positions:     0.000     0.000   0.0% |
  P tci:                             0.004     0.004   0.0% |
  ST tci:                            0.001     0.001   0.0% |
  mktci:                             0.003     0.003   0.0% |
PWDescriptor:                        0.009     0.009   0.0% |
SCF-cycle:                          41.126     0.008   0.0% |
 Davidson:                          22.126     2.249   1.4% ||
  Apply H:                           4.640     4.605   2.9% ||
   HMM T:                            0.035     0.035   0.0% |
  Subspace diag:                     4.782     0.001   0.0% |
   calc_h_matrix:                    4.558     0.093   0.1% |
    Apply H:                         4.465     4.433   2.8% ||
     HMM T:                          0.032     0.032   0.0% |
   diagonalize:                      0.005     0.005   0.0% |
   rotate_psi:                       0.218     0.218   0.1% |
  calc. matrices:                   10.083     0.693   0.4% |
   Apply H:                          9.390     9.316   6.0% |-|
    HMM T:                           0.074     0.074   0.0% |
  diagonalize:                       0.029     0.029   0.0% |
  rotate_psi:                        0.343     0.343   0.2% |
 Density:                            6.049     0.000   0.0% |
  Atomic density matrices:           0.008     0.008   0.0% |
  Mix:                               3.619     3.619   2.3% ||
  Multipole moments:                 0.002     0.002   0.0% |
  Pseudo density:                    2.420     2.420   1.5% ||
   Symmetrize density:               0.000     0.000   0.0% |
 Hamiltonian:                       12.921     0.126   0.1% |
  Atomic:                            1.771     0.008   0.0% |
   XC Correction:                    1.763     1.763   1.1% |
  Calculate atomic Hamiltonians:     2.640     2.640   1.7% ||
  Communicate:                       0.000     0.000   0.0% |
  Poisson:                           0.084     0.084   0.1% |
  XC 3D grid:                        8.301     8.301   5.3% |-|
 Orthonormalize:                     0.023     0.000   0.0% |
  calc_s_matrix:                     0.005     0.005   0.0% |
  inverse-cholesky:                  0.001     0.001   0.0% |
  projections:                       0.015     0.015   0.0% |
  rotate_psi_s:                      0.003     0.003   0.0% |
Set symmetry:                        0.001     0.001   0.0% |
Other:                             114.384   114.384  73.1% |----------------------------|
-----------------------------------------------------------
Total:                                       156.474 100.0%

Memory usage: 1.71 GiB
Date: Sun Feb 16 20:17:19 2025
