
  ___ ___ ___ _ _ _  
 |   |   |_  | | | | 
 | | | | | . | | | | 
 |__ |  _|___|_____|  25.1.0
 |___|_|             

User:   zoe@dhcp-140-94.vpn.chalmers.se
Date:   Sun Feb 16 20:16:09 2025
Arch:   arm64
Pid:    62351
CWD:    /Users/zoe/Documents/GitHub/TIF320_Computitional_Materials_and_Molecular_Physics
Python: 3.12.2
gpaw:   /opt/anaconda3/envs/tif320env/lib/python3.12/site-packages/gpaw
_gpaw:  /opt/anaconda3/envs/tif320env/lib/python3.12/site-packages/
        _gpaw.cpython-312-darwin.so
ase:    /opt/anaconda3/envs/tif320env/lib/python3.12/site-packages/ase (version 3.24.0)
numpy:  /opt/anaconda3/envs/tif320env/lib/python3.12/site-packages/numpy (version 2.0.1)
scipy:  /opt/anaconda3/envs/tif320env/lib/python3.12/site-packages/scipy (version 1.15.1)
libxc:  7.0.0
units:  Angstrom and eV
cores: 1
OpenMP: False
OMP_NUM_THREADS: 1

Input parameters:
  mode: {ecut: 350.0,
         name: pw}
  xc: PBE

System changes: positions, numbers, cell, pbc, initial_charges, initial_magmoms 

Initialize ...

species:
  Na:
    name: Sodium
    id: d7ecbc49209718622bcbe287195dca2a
    Z: 11.0
    valence: 7
    core: 4
    charge: 0.0
    file: /opt/anaconda3/envs/tif320env/gpaw-setups/gpaw-setups-24.11.0/Na.PBE.gz
    compensation charges: {type: gauss,
                           rc: 0.37,
                           lmax: 2}
    cutoffs: {filter: 2.17,
              core: 2.59}
    projectors:
      #              energy  rcut
      - 3s(1.00)    -2.744   1.201
      - 2p(6.00)   -28.672   1.217
      - 3p(0.00)    -0.743   1.217
      -  s          24.468   1.201
      -  d           0.000   1.238
  
    # Using partial waves for Na as LCAO basis

Reference energy: -35348.883981  # eV

Spin-paired calculation

Convergence criteria:
 Maximum [total energy] change in last 3 cyles: 0.0005 eV / valence electron
 Maximum integral of absolute [dens]ity change: 0.0001 electrons / valence electron
 Maximum integral of absolute [eigenst]ate change: 4e-08 eV^2 / valence electron
 Maximum number of scf [iter]ations: 333
 (Square brackets indicate name in SCF output, whereas a 'c' in
 the SCF output indicates the quantity has converged.)

Symmetries present (total): 1

  ( 1  0  0)
  ( 0  1  0)
  ( 0  0  1)

1 k-point (Gamma)
1 k-point in the irreducible part of the Brillouin zone
       k-points in crystal coordinates                weights
   0:     0.00000000    0.00000000    0.00000000          1/1

Wave functions: Plane wave expansion
  Cutoff energy: 350.000 eV
  Number of coefficients: 61037 (reduced to 30519)
  Pulay-stress correction: 0.000000 eV/Ang^3 (de/decut=0.000000)
  Using Numpy's FFT
  ScaLapack parameters: grid=1x1, blocksize=None
  Wavefunction extrapolation:
    Improved wavefunction reuse through dual PAW basis 

Occupation numbers: # Zero width 

Eigensolver
   Davidson(niter=2) 

Densities:
  Coarse grid: 70*70*70 grid
  Fine grid: 140*140*140 grid
  Total Charge: 0.000000 

Density mixing:
  Method: separate
  Backend: pulay
  Linear mixing parameter: 0.05
  old densities: 5
  Damping of long wavelength oscillations: 50 

Hamiltonian:
  XC and Coulomb potentials evaluated on a 140*140*140 grid
  Using the PBE Exchange-Correlation functional
  External potential:
    NoExternalPotential
 

XC parameters: PBE with 2 nearest neighbor stencil

Memory estimate:
  Process memory now: 1332.22 MiB
  Calculator: 252.63 MiB
    Density: 158.58 MiB
      Arrays: 68.04 MiB
      Localized functions: 64.38 MiB
      Mixer: 26.17 MiB
    Hamiltonian: 45.80 MiB
      Arrays: 44.49 MiB
      XC: 0.00 MiB
      Poisson: 0.00 MiB
      vbar: 1.31 MiB
    Wavefunctions: 48.24 MiB
      Arrays psit_nG: 17.70 MiB
      Eigensolver: 20.14 MiB
      Projections: 0.03 MiB
      Projectors: 3.26 MiB
      PW-descriptor: 7.12 MiB

Total number of cores used: 1

Number of atoms: 8
Number of atomic orbitals: 56
Number of bands in calculation: 38
Number of valence electrons: 56
Bands to converge: occupied

... initialized

Initializing position-dependent things.

Density initialized from atomic densities
Creating initial wave functions:
  38 bands from LCAO basis set

           .--------------------------------------.  
          /|                                      |  
         / |                                      |  
        /  |                                      |  
       /   |                                      |  
      /    |                                      |  
     /     |                                      |  
    /      |                                      |  
   /       |                                      |  
  /        |                                      |  
 *         |                                      |  
 |         |                                      |  
 |         |              Na                      |  
 |         |                     Na               |  
 |         |       Na                             |  
 |         |          Na Na   Na                  |  
 |         |                                      |  
 |         |                                      |  
 |         |           Na     Na                  |  
 |         |                                      |  
 |         .--------------------------------------.  
 |        /                                      /   
 |       /                                      /    
 |      /                                      /     
 |     /                                      /      
 |    /                                      /       
 |   /                                      /        
 |  /                                      /         
 | /                                      /          
 |/                                      /           
 *--------------------------------------*            

Positions:
   0 Na     5.315957    7.649306    8.978973    ( 0.0000,  0.0000,  0.0000)
   1 Na     8.266379    6.263240    9.147838    ( 0.0000,  0.0000,  0.0000)
   2 Na     7.874035    9.750222    9.865187    ( 0.0000,  0.0000,  0.0000)
   3 Na    10.847700    8.549098    9.282621    ( 0.0000,  0.0000,  0.0000)
   4 Na    10.171016    6.712681    6.323715    ( 0.0000,  0.0000,  0.0000)
   5 Na     9.298228   10.032185    6.606766    ( 0.0000,  0.0000,  0.0000)
   6 Na     6.992105    7.325723    5.974240    ( 0.0000,  0.0000,  0.0000)
   7 Na     6.098298   10.484057    7.017394    ( 0.0000,  0.0000,  0.0000)

Unit cell:
           periodic     x           y           z      points  spacing
  1. axis:    no    16.000000    0.000000    0.000000    70     0.2286
  2. axis:    no     0.000000   16.000000    0.000000    70     0.2286
  3. axis:    no     0.000000    0.000000   16.000000    70     0.2286

  Lengths:  16.000000  16.000000  16.000000
  Angles:   90.000000  90.000000  90.000000

Effective grid spacing dv^(1/3) = 0.2286

     iter     time        total  log10-change:
                         energy   eigst   dens
iter:   1 20:16:11    -7.598182
iter:   2 20:16:14    -7.564582   -1.17  -1.32
iter:   3 20:16:16    -7.351509   -1.47  -1.35
iter:   4 20:16:18    -7.340852   -2.00  -1.73
iter:   5 20:16:20    -7.373336   -2.19  -1.73
iter:   6 20:16:22    -7.359696   -2.47  -1.97
iter:   7 20:16:24    -7.360406c  -2.94  -2.81
iter:   8 20:16:26    -7.357950c  -3.34  -2.79
iter:   9 20:16:29    -7.355797c  -3.46  -2.85
iter:  10 20:16:31    -7.355758c  -4.05  -2.87
iter:  11 20:16:33    -7.356017c  -4.43  -2.90
iter:  12 20:16:35    -7.355862c  -4.64  -2.89
iter:  13 20:16:37    -7.355586c  -4.75  -3.18
iter:  14 20:16:39    -7.355620c  -5.40  -3.21
iter:  15 20:16:41    -7.355873c  -5.04  -3.21
iter:  16 20:16:44    -7.355513c  -4.57  -3.21
iter:  17 20:16:46    -7.355570c  -5.47  -3.31
iter:  18 20:16:48    -7.355584c  -6.09  -3.40
iter:  19 20:16:50    -7.355500c  -4.98  -3.44
iter:  20 20:16:52    -7.355478c  -6.31  -3.65
iter:  21 20:16:54    -7.355510c  -5.35  -3.69
iter:  22 20:16:56    -7.355476c  -5.79  -3.80
iter:  23 20:16:59    -7.355476c  -6.87  -4.17c
iter:  24 20:17:01    -7.355479c  -7.00  -4.17c
iter:  25 20:17:03    -7.355478c  -6.27  -4.20c
iter:  26 20:17:05    -7.355477c  -7.80c -4.46c

Converged after 26 iterations.

Dipole moment: (0.000772, 0.001152, -0.003493) |e|*Ang

Energy contributions relative to reference atoms: (reference = -35348.883981)

Kinetic:         +9.467700
Potential:       -8.325787
External:        +0.000000
XC:              -8.271359
Entropy (-ST):   +0.000000
Local:           -0.226030
SIC:             +0.000000
--------------------------
Free energy:     -7.355477
Extrapolated:    -7.355477

 Band  Eigenvalues  Occupancy
    0    -27.76096    2.00000
    1    -27.75976    2.00000
    2    -27.75591    2.00000
    3    -27.75341    2.00000
    4    -27.75197    2.00000
    5    -27.75024    2.00000
    6    -27.74833    2.00000
    7    -27.74746    2.00000
    8    -27.74385    2.00000
    9    -27.74089    2.00000
   10    -27.73718    2.00000
   11    -27.73476    2.00000
   12    -27.51508    2.00000
   13    -27.50872    2.00000
   14    -27.50624    2.00000
   15    -27.49811    2.00000
   16    -27.49742    2.00000
   17    -27.49258    2.00000
   18    -27.49193    2.00000
   19    -27.49155    2.00000
   20    -27.49104    2.00000
   21    -27.48376    2.00000
   22    -27.48125    2.00000
   23    -27.47716    2.00000
   24     -4.36437    2.00000
   25     -3.16034    2.00000
   26     -2.78344    2.00000
   27     -2.77485    2.00000
   28     -1.66690    0.00000
   29     -1.51118    0.00000
   30     -1.50362    0.00000
   31     -1.26923    0.00000
   32     -1.20770    0.00000
   33     -1.07810    0.00000
   34     -0.34577    0.00000
   35     -0.25992    0.00000
   36     -0.20193    0.00000
   37     -0.07921    0.00000

Fermi level: -2.22087

Gap: 1.108 eV
Transition (v -> c):
  (s=0, k=0, n=27, [0.00, 0.00, 0.00]) -> (s=0, k=0, n=28, [0.00, 0.00, 0.00])
No difference between direct/indirect transitions
Writing to ./A2/task10_Na8_wavefunctions.gpw (mode='all')

Timing:                              incl.     excl.
-----------------------------------------------------------
Hamiltonian:                         0.677     0.006   0.0% |
 Atomic:                             0.118     0.000   0.0% |
  XC Correction:                     0.117     0.117   0.2% |
 Calculate atomic Hamiltonians:      0.116     0.116   0.2% |
 Communicate:                        0.000     0.000   0.0% |
 Initialize Hamiltonian:             0.002     0.002   0.0% |
 Poisson:                            0.004     0.004   0.0% |
 XC 3D grid:                         0.431     0.431   0.6% |
LCAO initialization:                 0.274     0.011   0.0% |
 LCAO eigensolver:                   0.039     0.000   0.0% |
  Calculate projections:             0.000     0.000   0.0% |
  DenseAtomicCorrection:             0.000     0.000   0.0% |
  Distribute overlap matrix:         0.000     0.000   0.0% |
  Orbital Layouts:                   0.001     0.001   0.0% |
  Potential matrix:                  0.039     0.039   0.1% |
 LCAO to grid:                       0.211     0.211   0.3% |
 Set positions (LCAO WFS):           0.013     0.003   0.0% |
  Basic WFS set positions:           0.000     0.000   0.0% |
  Basis functions set positions:     0.000     0.000   0.0% |
  P tci:                             0.007     0.007   0.0% |
  ST tci:                            0.002     0.002   0.0% |
  mktci:                             0.001     0.001   0.0% |
PWDescriptor:                        0.006     0.006   0.0% |
SCF-cycle:                          55.025     0.009   0.0% |
 Davidson:                          30.909     2.535   3.6% ||
  Apply H:                           6.592     6.544   9.4% |---|
   HMM T:                            0.048     0.048   0.1% |
  Subspace diag:                     6.810     0.001   0.0% |
   calc_h_matrix:                    6.585     0.139   0.2% |
    Apply H:                         6.446     6.401   9.1% |---|
     HMM T:                          0.045     0.045   0.1% |
   diagonalize:                      0.007     0.007   0.0% |
   rotate_psi:                       0.216     0.216   0.3% |
  calc. matrices:                   14.261     0.941   1.3% ||
   Apply H:                         13.321    13.221  18.9% |-------|
    HMM T:                           0.099     0.099   0.1% |
  diagonalize:                       0.171     0.171   0.2% |
  rotate_psi:                        0.540     0.540   0.8% |
 Density:                            7.606     0.000   0.0% |
  Atomic density matrices:           0.011     0.011   0.0% |
  Mix:                               3.946     3.946   5.6% |-|
  Multipole moments:                 0.002     0.002   0.0% |
  Pseudo density:                    3.647     3.647   5.2% |-|
   Symmetrize density:               0.000     0.000   0.0% |
 Hamiltonian:                       16.457     0.145   0.2% |
  Atomic:                            2.961     0.012   0.0% |
   XC Correction:                    2.949     2.949   4.2% |-|
  Calculate atomic Hamiltonians:     3.023     3.023   4.3% |-|
  Communicate:                       0.000     0.000   0.0% |
  Poisson:                           0.074     0.074   0.1% |
  XC 3D grid:                       10.254    10.254  14.7% |-----|
 Orthonormalize:                     0.044     0.000   0.0% |
  calc_s_matrix:                     0.005     0.005   0.0% |
  inverse-cholesky:                  0.000     0.000   0.0% |
  projections:                       0.024     0.024   0.0% |
  rotate_psi_s:                      0.014     0.014   0.0% |
Set symmetry:                        0.000     0.000   0.0% |
Other:                              13.978    13.978  20.0% |-------|
-----------------------------------------------------------
Total:                                        69.961 100.0%

Memory usage: 1.71 GiB
Date: Sun Feb 16 20:17:19 2025
