6
Lattice="16.0 0.0 0.0 0.0 16.0 0.0 0.0 0.0 16.0" Properties=species:S:1:pos:R:3:magmoms:R:1:forces:R:3 energy=-3.7871770060497307 free_energy=-3.7871770060497307 dipole="0.0019066364457195073 0.0023756673059417356 0.0014213166630561306" magmom=0.0 pbc="F F F"
Na      11.57186709       4.92251227       9.70861460       0.00000000      -0.00548032       0.00617357      -0.00252607
Na       9.11352641       7.12155441      10.79351244       0.00000000       0.00269582      -0.00214600      -0.00529722
Na       6.61076969       9.35765066      11.66174209       0.00000000       0.00154443      -0.00351602      -0.00168835
Na       7.63153277       8.03897954       4.93148724       0.00000000      -0.00176867      -0.00137103       0.00283789
Na       9.65726954       6.43080008       7.23441721       0.00000000      -0.00155316       0.00064468       0.00607975
Na       7.00356812       8.73950516       8.27152772       0.00000000       0.00721581      -0.00110167       0.00163820
