
  ___ ___ ___ _ _ _  
 |   |   |_  | | | | 
 | | | | | . | | | | 
 |__ |  _|___|_____|  25.1.0
 |___|_|             

User:   zoe@dhcp-140-94.vpn.chalmers.se
Date:   Sun Feb 16 20:15:25 2025
Arch:   arm64
Pid:    62351
CWD:    /Users/zoe/Documents/GitHub/TIF320_Computitional_Materials_and_Molecular_Physics
Python: 3.12.2
gpaw:   /opt/anaconda3/envs/tif320env/lib/python3.12/site-packages/gpaw
_gpaw:  /opt/anaconda3/envs/tif320env/lib/python3.12/site-packages/
        _gpaw.cpython-312-darwin.so
ase:    /opt/anaconda3/envs/tif320env/lib/python3.12/site-packages/ase (version 3.24.0)
numpy:  /opt/anaconda3/envs/tif320env/lib/python3.12/site-packages/numpy (version 2.0.1)
scipy:  /opt/anaconda3/envs/tif320env/lib/python3.12/site-packages/scipy (version 1.15.1)
libxc:  7.0.0
units:  Angstrom and eV
cores: 1
OpenMP: False
OMP_NUM_THREADS: 1

Input parameters:
  mode: {ecut: 350.0,
         name: pw}
  xc: PBE

System changes: positions, numbers, cell, pbc, initial_charges, initial_magmoms 

Initialize ...

species:
  Na:
    name: Sodium
    id: d7ecbc49209718622bcbe287195dca2a
    Z: 11.0
    valence: 7
    core: 4
    charge: 0.0
    file: /opt/anaconda3/envs/tif320env/gpaw-setups/gpaw-setups-24.11.0/Na.PBE.gz
    compensation charges: {type: gauss,
                           rc: 0.37,
                           lmax: 2}
    cutoffs: {filter: 2.17,
              core: 2.59}
    projectors:
      #              energy  rcut
      - 3s(1.00)    -2.744   1.201
      - 2p(6.00)   -28.672   1.217
      - 3p(0.00)    -0.743   1.217
      -  s          24.468   1.201
      -  d           0.000   1.238
  
    # Using partial waves for Na as LCAO basis

Reference energy: -30930.273484  # eV

Spin-paired calculation

Convergence criteria:
 Maximum [total energy] change in last 3 cyles: 0.0005 eV / valence electron
 Maximum integral of absolute [dens]ity change: 0.0001 electrons / valence electron
 Maximum integral of absolute [eigenst]ate change: 4e-08 eV^2 / valence electron
 Maximum number of scf [iter]ations: 333
 (Square brackets indicate name in SCF output, whereas a 'c' in
 the SCF output indicates the quantity has converged.)

Symmetries present (total): 1

  ( 1  0  0)
  ( 0  1  0)
  ( 0  0  1)

1 k-point (Gamma)
1 k-point in the irreducible part of the Brillouin zone
       k-points in crystal coordinates                weights
   0:     0.00000000    0.00000000    0.00000000          1/1

Wave functions: Plane wave expansion
  Cutoff energy: 350.000 eV
  Number of coefficients: 61037 (reduced to 30519)
  Pulay-stress correction: 0.000000 eV/Ang^3 (de/decut=0.000000)
  Using Numpy's FFT
  ScaLapack parameters: grid=1x1, blocksize=None
  Wavefunction extrapolation:
    Improved wavefunction reuse through dual PAW basis 

Occupation numbers: # Zero width 

Eigensolver
   Davidson(niter=2) 

Densities:
  Coarse grid: 70*70*70 grid
  Fine grid: 140*140*140 grid
  Total Charge: 0.000000 

Density mixing:
  Method: separate
  Backend: pulay
  Linear mixing parameter: 0.05
  old densities: 5
  Damping of long wavelength oscillations: 50 

Hamiltonian:
  XC and Coulomb potentials evaluated on a 140*140*140 grid
  Using the PBE Exchange-Correlation functional
  External potential:
    NoExternalPotential
 

XC parameters: PBE with 2 nearest neighbor stencil

Memory estimate:
  Process memory now: 852.11 MiB
  Calculator: 248.87 MiB
    Density: 158.58 MiB
      Arrays: 68.04 MiB
      Localized functions: 64.38 MiB
      Mixer: 26.17 MiB
    Hamiltonian: 45.80 MiB
      Arrays: 44.49 MiB
      XC: 0.00 MiB
      Poisson: 0.00 MiB
      vbar: 1.31 MiB
    Wavefunctions: 44.49 MiB
      Arrays psit_nG: 15.83 MiB
      Eigensolver: 18.25 MiB
      Projections: 0.02 MiB
      Projectors: 3.26 MiB
      PW-descriptor: 7.12 MiB

Total number of cores used: 1

Number of atoms: 7
Number of atomic orbitals: 49
Number of bands in calculation: 34
Number of valence electrons: 49
Bands to converge: occupied

... initialized

Initializing position-dependent things.

Density initialized from atomic densities
Creating initial wave functions:
  34 bands from LCAO basis set

           .--------------------------------------.  
          /|                                      |  
         / |                                      |  
        /  |                                      |  
       /   |                                      |  
      /    |                                      |  
     /     |                                      |  
    /      |                                      |  
   /       |                                      |  
  /        |                                      |  
 *         |                                      |  
 |         |                                      |  
 |         |          Na                          |  
 |         |                                      |  
 |         |             Na   Na                  |  
 |         |            Na                        |  
 |         |                                      |  
 |         |          Na                          |  
 |         |                NNa                   |  
 |         |                                      |  
 |         .--------------------------------------.  
 |        /                                      /   
 |       /                                      /    
 |      /                                      /     
 |     /                                      /      
 |    /                                      /       
 |   /                                      /        
 |  /                                      /         
 | /                                      /          
 |/                                      /           
 *--------------------------------------*            

Positions:
   0 Na     6.759800   10.196282    7.281413    ( 0.0000,  0.0000,  0.0000)
   1 Na     9.587478    8.693231    8.607576    ( 0.0000,  0.0000,  0.0000)
   2 Na     6.471436    8.304531   10.071493    ( 0.0000,  0.0000,  0.0000)
   3 Na     8.959289    8.678776    5.209591    ( 0.0000,  0.0000,  0.0000)
   4 Na    10.000948    5.817136    6.698417    ( 0.0000,  0.0000,  0.0000)
   5 Na     6.700780    6.755576    6.999360    ( 0.0000,  0.0000,  0.0000)
   6 Na     8.497612    5.612924    9.731547    ( 0.0000,  0.0000,  0.0000)

Unit cell:
           periodic     x           y           z      points  spacing
  1. axis:    no    16.000000    0.000000    0.000000    70     0.2286
  2. axis:    no     0.000000   16.000000    0.000000    70     0.2286
  3. axis:    no     0.000000    0.000000   16.000000    70     0.2286

  Lengths:  16.000000  16.000000  16.000000
  Angles:   90.000000  90.000000  90.000000

Effective grid spacing dv^(1/3) = 0.2286

     iter     time        total  log10-change:
                         energy   eigst   dens
iter:   1 20:15:28    -6.191232
iter:   2 20:15:30    -6.171564   -1.18  -1.32
iter:   3 20:15:32    -6.030470   -1.46  -1.35
iter:   4 20:15:34    -6.001859   -1.98  -1.74
iter:   5 20:15:36    -6.014810   -2.23  -1.75
iter:   6 20:15:38    -6.012465c  -2.50  -2.02
iter:   7 20:15:40    -6.011507c  -2.96  -2.74
iter:   8 20:15:42    -6.009181c  -3.17  -2.76
iter:   9 20:15:44    -6.009246c  -3.74  -3.13
iter:  10 20:15:46    -6.009271c  -4.09  -3.13
iter:  11 20:15:48    -6.009317c  -4.49  -3.14
iter:  12 20:15:50    -6.009361c  -4.80  -3.21
iter:  13 20:15:52    -6.009296c  -4.91  -3.33
iter:  14 20:15:54    -6.009290c  -5.51  -3.69
iter:  15 20:15:56    -6.009288c  -5.88  -3.87
iter:  16 20:15:59    -6.009290c  -6.17  -3.98
iter:  17 20:16:01    -6.009289c  -6.61  -4.26c
iter:  18 20:16:03    -6.009288c  -6.94  -4.30c
iter:  19 20:16:05    -6.009287c  -6.83  -4.33c
iter:  20 20:16:07    -6.009287c  -7.34  -4.44c
iter:  21 20:16:09    -6.009287c  -7.85c -4.49c

Converged after 21 iterations.

Dipole moment: (0.002725, -0.000118, -0.000372) |e|*Ang

Energy contributions relative to reference atoms: (reference = -30930.273484)

Kinetic:         +7.960645
Potential:       -6.765735
External:        +0.000000
XC:              -7.007078
Entropy (-ST):   +0.000000
Local:           -0.197119
SIC:             +0.000000
--------------------------
Free energy:     -6.009287
Extrapolated:    -6.009287

 Band  Eigenvalues  Occupancy
    0    -27.72320    2.00000
    1    -27.71780    2.00000
    2    -27.71719    2.00000
    3    -27.71131    2.00000
    4    -27.71108    2.00000
    5    -27.70313    2.00000
    6    -27.70228    2.00000
    7    -27.70155    2.00000
    8    -27.69658    2.00000
    9    -27.69582    2.00000
   10    -27.69561    2.00000
   11    -27.69518    2.00000
   12    -27.68636    2.00000
   13    -27.68570    2.00000
   14    -27.67809    2.00000
   15    -27.67692    2.00000
   16    -27.67149    2.00000
   17    -27.65995    2.00000
   18    -27.65988    2.00000
   19    -27.65499    2.00000
   20    -27.65497    2.00000
   21     -4.35172    2.00000
   22     -2.93219    2.00000
   23     -2.93056    2.00000
   24     -2.36347    1.00000
   25     -1.48531    0.00000
   26     -1.47996    0.00000
   27     -1.46913    0.00000
   28     -0.96719    0.00000
   29     -0.96233    0.00000
   30     -0.77247    0.00000
   31     -0.30418    0.00000
   32     -0.28482    0.00000
   33     -0.15855    0.00000

Fermi level: -2.36347

Gap: 0.567 eV
Transition (v -> c):
  (s=0, k=0, n=23, [0.00, 0.00, 0.00]) -> (s=0, k=0, n=24, [0.00, 0.00, 0.00])
No difference between direct/indirect transitions
Writing to ./A2/task10_Na7_wavefunctions.gpw (mode='all')

Timing:                              incl.     excl.
-----------------------------------------------------------
Hamiltonian:                         0.676     0.007   0.0% |
 Atomic:                             0.105     0.001   0.0% |
  XC Correction:                     0.105     0.105   0.1% |
 Calculate atomic Hamiltonians:      0.134     0.134   0.1% |
 Communicate:                        0.000     0.000   0.0% |
 Initialize Hamiltonian:             0.002     0.002   0.0% |
 Poisson:                            0.005     0.005   0.0% |
 XC 3D grid:                         0.423     0.423   0.4% |
LCAO initialization:                 0.247     0.012   0.0% |
 LCAO eigensolver:                   0.033     0.000   0.0% |
  Calculate projections:             0.000     0.000   0.0% |
  DenseAtomicCorrection:             0.000     0.000   0.0% |
  Distribute overlap matrix:         0.000     0.000   0.0% |
  Orbital Layouts:                   0.001     0.001   0.0% |
  Potential matrix:                  0.033     0.033   0.0% |
 LCAO to grid:                       0.190     0.190   0.2% |
 Set positions (LCAO WFS):           0.011     0.002   0.0% |
  Basic WFS set positions:           0.000     0.000   0.0% |
  Basis functions set positions:     0.000     0.000   0.0% |
  P tci:                             0.006     0.006   0.0% |
  ST tci:                            0.001     0.001   0.0% |
  mktci:                             0.001     0.001   0.0% |
PWDescriptor:                        0.008     0.008   0.0% |
SCF-cycle:                          42.124     0.008   0.0% |
 Davidson:                          22.808     1.976   1.7% ||
  Apply H:                           4.874     4.840   4.3% |-|
   HMM T:                            0.035     0.035   0.0% |
  Subspace diag:                     5.127     0.001   0.0% |
   calc_h_matrix:                    4.927     0.083   0.1% |
    Apply H:                         4.843     4.809   4.2% |-|
     HMM T:                          0.034     0.034   0.0% |
   diagonalize:                      0.006     0.006   0.0% |
   rotate_psi:                       0.193     0.193   0.2% |
  calc. matrices:                   10.377     0.604   0.5% |
   Apply H:                          9.773     9.701   8.5% |--|
    HMM T:                           0.072     0.072   0.1% |
  diagonalize:                       0.107     0.107   0.1% |
  rotate_psi:                        0.347     0.347   0.3% |
 Density:                            6.036     0.000   0.0% |
  Atomic density matrices:           0.008     0.008   0.0% |
  Mix:                               3.403     3.403   3.0% ||
  Multipole moments:                 0.002     0.002   0.0% |
  Pseudo density:                    2.622     2.622   2.3% ||
   Symmetrize density:               0.000     0.000   0.0% |
 Hamiltonian:                       13.252     0.117   0.1% |
  Atomic:                            2.123     0.009   0.0% |
   XC Correction:                    2.113     2.113   1.9% ||
  Calculate atomic Hamiltonians:     2.670     2.670   2.3% ||
  Communicate:                       0.000     0.000   0.0% |
  Poisson:                           0.059     0.059   0.1% |
  XC 3D grid:                        8.283     8.283   7.3% |--|
 Orthonormalize:                     0.021     0.000   0.0% |
  calc_s_matrix:                     0.002     0.002   0.0% |
  inverse-cholesky:                  0.000     0.000   0.0% |
  projections:                       0.015     0.015   0.0% |
  rotate_psi_s:                      0.003     0.003   0.0% |
Set symmetry:                        0.000     0.000   0.0% |
Other:                              70.688    70.688  62.1% |------------------------|
-----------------------------------------------------------
Total:                                       113.743 100.0%

Memory usage: 1.71 GiB
Date: Sun Feb 16 20:17:19 2025
