
  ___ ___ ___ _ _ _  
 |   |   |_  | | | | 
 | | | | | . | | | | 
 |__ |  _|___|_____|  25.1.0
 |___|_|             

User:   zoe@dhcp-140-98.vpn.chalmers.se
Date:   Thu Feb 20 17:08:05 2025
Arch:   arm64
Pid:    93679
CWD:    /Users/zoe/Documents/GitHub/TIF320_Computitional_Materials_and_Molecular_Physics/A2
Python: 3.12.2
gpaw:   /opt/anaconda3/envs/tif320env/lib/python3.12/site-packages/gpaw
_gpaw:  /opt/anaconda3/envs/tif320env/lib/python3.12/site-packages/
        _gpaw.cpython-312-darwin.so
ase:    /opt/anaconda3/envs/tif320env/lib/python3.12/site-packages/ase (version 3.24.0)
numpy:  /opt/anaconda3/envs/tif320env/lib/python3.12/site-packages/numpy (version 2.0.1)
scipy:  /opt/anaconda3/envs/tif320env/lib/python3.12/site-packages/scipy (version 1.15.1)
libxc:  7.0.0
units:  Angstrom and eV
cores: 1
OpenMP: False
OMP_NUM_THREADS: 1

Input parameters:
  kpts: [1 1 1]
  mode: {ecut: 400.0,
         name: pw}
  nbands: -10
  xc: HSE06

System changes: positions, numbers, cell, pbc, initial_charges, initial_magmoms 

Initialize ...

species:
  Na:
    name: Sodium
    id: d7ecbc49209718622bcbe287195dca2a
    Z: 11.0
    valence: 7
    core: 4
    charge: 0.0
    file: /opt/anaconda3/envs/tif320env/gpaw-setups/gpaw-setups-24.11.0/Na.PBE.gz
    compensation charges: {type: gauss,
                           rc: 0.37,
                           lmax: 2}
    cutoffs: {filter: 2.17,
              core: 2.59}
    projectors:
      #              energy  rcut
      - 3s(1.00)    -2.744   1.201
      - 2p(6.00)   -28.672   1.217
      - 3p(0.00)    -0.743   1.217
      -  s          24.468   1.201
      -  d           0.000   1.238
  
    # Using partial waves for Na as LCAO basis

Reference energy: -26511.662986  # eV

Spin-paired calculation

Convergence criteria:
 Maximum [total energy] change in last 3 cyles: 0.0005 eV / valence electron
 Maximum integral of absolute [dens]ity change: 0.0001 electrons / valence electron
 Maximum integral of absolute [eigenst]ate change: 4e-08 eV^2 / valence electron
 Maximum number of scf [iter]ations: 333
 (Square brackets indicate name in SCF output, whereas a 'c' in
 the SCF output indicates the quantity has converged.)

Symmetries present (total): 1

  ( 1  0  0)
  ( 0  1  0)
  ( 0  0  1)

1 k-point (Gamma)
1 k-point in the irreducible part of the Brillouin zone
       k-points in crystal coordinates                weights
   0:     0.00000000    0.00000000    0.00000000          1/1

Wave functions: Plane wave expansion
  Cutoff energy: 400.000 eV
  Number of coefficients: 74269 (reduced to 37135)
  Pulay-stress correction: 0.000000 eV/Ang^3 (de/decut=0.000000)
  Using Numpy's FFT
  ScaLapack parameters: grid=1x1, blocksize=None
  Wavefunction extrapolation:
    Improved wavefunction reuse through dual PAW basis 

Occupation numbers: # Zero width 

Eigensolver
   Davidson(niter=2) 

Densities:
  Coarse grid: 75*75*75 grid
  Fine grid: 150*150*150 grid
  Total Charge: 0.000000 

Density mixing:
  Method: separate
  Backend: pulay
  Linear mixing parameter: 0.05
  old densities: 5
  Damping of long wavelength oscillations: 50 

Hamiltonian:
  XC and Coulomb potentials evaluated on a 150*150*150 grid
  Using the HSE06 Exchange-Correlation functional
  External potential:
    NoExternalPotential
 

XC parameters: HYB_GGA_XC_HSE06 + 0.25 * EXX(omega = 0.11 bohr^-1)

Memory estimate:
  Process memory now: 290.62 MiB
Attribute error: AttributeError("'HybridXC' object has no attribute 'estimate_memory'")
Some object probably lacks estimate_memory() method
Memory breakdown may be incomplete
  Calculator: 249.28 MiB
    Density: 194.57 MiB
      Arrays: 83.68 MiB
      Localized functions: 78.70 MiB
      Mixer: 32.19 MiB
    Hamiltonian: 54.72 MiB
      Arrays: 54.72 MiB

Total number of cores used: 1

Number of atoms: 6
Number of atomic orbitals: 42
Number of bands in calculation: 31
Number of valence electrons: 42
Bands to converge: occupied

... initialized

Initializing position-dependent things.

Density initialized from atomic densities
Creating initial wave functions:
  31 bands from LCAO basis set

           .--------------------------------------.  
          /|                                      |  
         / |                                      |  
        /  |                                      |  
       /   |                                      |  
      /    |                                      |  
     /     |                                      |  
    /      |                                      |  
   /       |                                      |  
  /        |                                      |  
 *         |           Na                         |  
 |         |                                      |  
 |         |                Na                    |  
 |         |                                      |  
 |         |            Na                        |  
 |         |                    Na                |  
 |         |                                      |  
 |         |                Na                    |  
 |         |                                      |  
 |         |             Na                       |  
 |         .--------------------------------------.  
 |        /                                      /   
 |       /                                      /    
 |      /                                      /     
 |     /                                      /      
 |    /                                      /       
 |   /                                      /        
 |  /                                      /         
 | /                                      /          
 |/                                      /           
 *--------------------------------------*            

Positions:
   0 Na    11.424955    5.046215    9.661160    ( 0.0000,  0.0000,  0.0000)
   1 Na     9.091214    7.135542   10.719357    ( 0.0000,  0.0000,  0.0000)
   2 Na     6.710298    9.263471   11.516303    ( 0.0000,  0.0000,  0.0000)
   3 Na     7.680133    8.011559    5.125248    ( 0.0000,  0.0000,  0.0000)
   4 Na     9.624253    6.463545    7.292195    ( 0.0000,  0.0000,  0.0000)
   5 Na     7.055205    8.690646    8.283979    ( 0.0000,  0.0000,  0.0000)

Unit cell:
           periodic     x           y           z      points  spacing
  1. axis:    no    16.000000    0.000000    0.000000    75     0.2133
  2. axis:    no     0.000000   16.000000    0.000000    75     0.2133
  3. axis:    no     0.000000    0.000000   16.000000    75     0.2133

  Lengths:  16.000000  16.000000  16.000000
  Angles:   90.000000  90.000000  90.000000

Effective grid spacing dv^(1/3) = 0.2133

     iter     time        total  log10-change:
                         energy   eigst   dens
iter:   1 17:08:12
iter:   2 17:08:38                +1.83  -1.22
iter:   3 17:09:03   -27.330370   +0.43  -1.34
iter:   4 17:09:27   -19.390674   -0.16  -1.32
iter:   5 17:09:52   -19.077432   -0.63  -1.25
iter:   6 17:10:18   -18.355625   -0.96  -1.67
iter:   7 17:10:44   -19.311258   -0.96  -1.65
iter:   8 17:11:10   -19.079898   -1.26  -1.27
iter:   9 17:11:36   -19.094961   -1.50  -1.20
iter:  10 17:12:01   -18.625187   -1.65  -1.26
iter:  11 17:12:26   -18.864796   -1.48  -1.61
iter:  12 17:12:51   -18.956668   -1.89  -1.75
iter:  13 17:13:17   -18.712671   -2.21  -1.75
iter:  14 17:13:45   -18.692988   -2.39  -1.85
iter:  15 17:14:12   -18.613590   -2.60  -1.99
iter:  16 17:14:38   -18.724266   -2.60  -2.12
iter:  17 17:15:05   -18.823102   -2.17  -2.04
iter:  18 17:15:33   -18.736162   -2.78  -1.87
iter:  19 17:16:01   -18.800344   -2.87  -1.97
iter:  20 17:16:30   -18.761402   -2.72  -1.96
iter:  21 17:17:00   -18.692112   -3.08  -2.53
iter:  22 17:17:30   -18.764953   -3.21  -2.39
iter:  23 17:18:00   -18.809581   -3.79  -2.51
iter:  24 17:18:26   -18.774010   -3.90  -2.71
iter:  25 17:18:51   -18.783624   -3.87  -2.76
iter:  26 17:19:19   -18.798767   -4.12  -2.63
iter:  27 17:19:46   -18.774238   -3.97  -2.78
iter:  28 17:20:14   -18.770695   -4.40  -3.02
iter:  29 17:20:41   -18.779502c  -4.55  -2.98
iter:  30 17:21:09   -18.769997c  -3.89  -3.06
iter:  31 17:21:35   -18.762810c  -3.98  -2.73
iter:  32 17:22:00   -18.780871c  -4.62  -3.16
iter:  33 17:22:25   -18.770385c  -4.89  -3.08
iter:  34 17:22:50   -18.763516c  -5.36  -3.58
iter:  35 17:23:16   -18.767846c  -5.05  -3.57
iter:  36 17:23:43   -18.764779c  -5.30  -3.21
iter:  37 17:24:13   -18.771625c  -5.46  -3.76
iter:  38 17:24:44   -18.770734c  -5.90  -3.61
iter:  39 17:25:08   -18.767574c  -5.80  -3.62
iter:  40 17:25:39   -18.767219c  -6.09  -4.14c
iter:  41 17:26:08   -18.767611c  -6.34  -4.37c
iter:  42 17:26:35   -18.768130c  -6.44  -4.39c
iter:  43 17:27:00   -18.767933c  -6.49  -4.29c
iter:  44 17:27:26   -18.767668c  -6.71  -4.49c
iter:  45 17:27:51   -18.768099c  -6.81  -4.51c
iter:  46 17:28:16   -18.768136c  -6.78  -4.43c
iter:  47 17:28:41   -18.768488c  -6.84  -4.49c
iter:  48 17:29:06   -18.768075c  -7.00  -4.62c
iter:  49 17:29:30   -18.768385c  -7.20  -4.65c
iter:  50 17:29:56   -18.768620c  -7.36  -4.69c
iter:  51 17:30:21   -18.768270c  -7.54c -4.66c

Converged after 51 iterations.

Dipole moment: (0.019345, -0.008891, -0.012846) |e|*Ang

Energy contributions relative to reference atoms: (reference = -26511.662986)

Kinetic:        +26.574412
Potential:      -23.550912
External:        +0.000000
XC:             -21.644390
Entropy (-ST):   +0.000000
Local:           -0.147380
SIC:             +0.000000
--------------------------
Free energy:    -18.768270
Extrapolated:   -18.768270

HYB_GGA_XC_HSE06 + 0.25 * EXX(omega = 0.11 bohr^-1)
Short-range Coulomb: erfc(omega*r)/r (omega = 0.11 bohr^-1)
 Band  Eigenvalues  Occupancy
    0    -30.75883    2.00000
    1    -30.75631    2.00000
    2    -30.75443    2.00000
    3    -30.75413    2.00000
    4    -30.75220    2.00000
    5    -30.75126    2.00000
    6    -30.74906    2.00000
    7    -30.74846    2.00000
    8    -30.74811    2.00000
    9    -30.68247    2.00000
   10    -30.67197    2.00000
   11    -30.66630    2.00000
   12    -30.66447    2.00000
   13    -30.66291    2.00000
   14    -30.66202    2.00000
   15    -30.63811    2.00000
   16    -30.63176    2.00000
   17    -30.62796    2.00000
   18     -4.15742    2.00000
   19     -3.01328    2.00000
   20     -3.01056    2.00000
   21     -1.53112    0.00000
   22     -1.40594    0.00000
   23     -1.38059    0.00000
   24     -1.22104    0.00000
   25     -0.50683    0.00000
   26     -0.44526    0.00000
   27     -0.43529    0.00000
   28     -0.35106    0.00000
   29     -0.24626    0.00000
   30     -0.05206    0.00000

Fermi level: -2.27084

Gap: 1.479 eV
Transition (v -> c):
  (s=0, k=0, n=20, [0.00, 0.00, 0.00]) -> (s=0, k=0, n=21, [0.00, 0.00, 0.00])
No difference between direct/indirect transitions

Forces in eV/Ang:
  0 Na    0.10013   -0.08450    0.03538
  1 Na    0.01966   -0.01386    0.04813
  2 Na   -0.07214    0.06995    0.09882
  3 Na   -0.03363    0.02038   -0.13500
  4 Na    0.02481   -0.02406   -0.03823
  5 Na   -0.03876    0.03234   -0.00912

System changes: positions 

Initializing position-dependent things.

Density initialized from wave functions
           .--------------------------------------.  
          /|                                      |  
         / |                                      |  
        /  |                                      |  
       /   |                                      |  
      /    |                                      |  
     /     |                                      |  
    /      |                                      |  
   /       |                                      |  
  /        |                                      |  
 *         |           Na                         |  
 |         |                                      |  
 |         |                Na                    |  
 |         |                                      |  
 |         |            Na                        |  
 |         |                    Na                |  
 |         |                                      |  
 |         |                Na                    |  
 |         |                                      |  
 |         |             Na                       |  
 |         .--------------------------------------.  
 |        /                                      /   
 |       /                                      /    
 |      /                                      /     
 |     /                                      /      
 |    /                                      /       
 |   /                                      /        
 |  /                                      /         
 | /                                      /          
 |/                                      /           
 *--------------------------------------*            

Positions:
   0 Na    11.426385    5.045008    9.661666    ( 0.0000,  0.0000,  0.0000)
   1 Na     9.091495    7.135343   10.720045    ( 0.0000,  0.0000,  0.0000)
   2 Na     6.709267    9.264470   11.517714    ( 0.0000,  0.0000,  0.0000)
   3 Na     7.679652    8.011850    5.123319    ( 0.0000,  0.0000,  0.0000)
   4 Na     9.624608    6.463201    7.291649    ( 0.0000,  0.0000,  0.0000)
   5 Na     7.054651    8.691108    8.283849    ( 0.0000,  0.0000,  0.0000)

Unit cell:
           periodic     x           y           z      points  spacing
  1. axis:    no    16.000000    0.000000    0.000000    75     0.2133
  2. axis:    no     0.000000   16.000000    0.000000    75     0.2133
  3. axis:    no     0.000000    0.000000   16.000000    75     0.2133

  Lengths:  16.000000  16.000000  16.000000
  Angles:   90.000000  90.000000  90.000000

Effective grid spacing dv^(1/3) = 0.2133

     iter     time        total  log10-change:
                         energy   eigst   dens
iter:   1 17:30:51   -18.768412   -4.27
iter:   2 17:31:19   -18.770267   -4.94  -3.56
iter:   3 17:31:46   -18.770427c  -5.12  -3.53
iter:   4 17:32:13   -18.771285c  -5.11  -3.18
iter:   5 17:32:40   -18.766806c  -5.38  -3.77
iter:   6 17:33:06   -18.767983c  -5.66  -4.11c
iter:   7 17:33:32   -18.768624c  -5.90  -3.74
iter:   8 17:33:57   -18.769773c  -6.10  -3.88
iter:   9 17:34:23   -18.769549c  -6.33  -3.91
iter:  10 17:34:51   -18.769398c  -6.45  -4.01c
iter:  11 17:35:20   -18.769444c  -6.51  -3.89
iter:  12 17:35:49   -18.769607c  -6.66  -4.20c
iter:  13 17:36:16   -18.769830c  -7.02  -4.82c
iter:  14 17:36:44   -18.769358c  -7.17  -4.82c
iter:  15 17:37:11   -18.769209c  -7.42c -4.71c

Converged after 15 iterations.

Dipole moment: (0.019415, -0.008925, -0.012838) |e|*Ang

Energy contributions relative to reference atoms: (reference = -26511.662986)

Kinetic:        +26.536373
Potential:      -23.521313
External:        +0.000000
XC:             -21.636839
Entropy (-ST):   +0.000000
Local:           -0.147430
SIC:             +0.000000
--------------------------
Free energy:    -18.769209
Extrapolated:   -18.769209

HYB_GGA_XC_HSE06 + 0.25 * EXX(omega = 0.11 bohr^-1)
Short-range Coulomb: erfc(omega*r)/r (omega = 0.11 bohr^-1)
 Band  Eigenvalues  Occupancy
    0    -30.75923    2.00000
    1    -30.75665    2.00000
    2    -30.75478    2.00000
    3    -30.75457    2.00000
    4    -30.75259    2.00000
    5    -30.75160    2.00000
    6    -30.74949    2.00000
    7    -30.74882    2.00000
    8    -30.74855    2.00000
    9    -30.68270    2.00000
   10    -30.67227    2.00000
   11    -30.66659    2.00000
   12    -30.66476    2.00000
   13    -30.66322    2.00000
   14    -30.66231    2.00000
   15    -30.63836    2.00000
   16    -30.63200    2.00000
   17    -30.62821    2.00000
   18     -4.15590    2.00000
   19     -3.01280    2.00000
   20     -3.01013    2.00000
   21     -1.53149    0.00000
   22     -1.40618    0.00000
   23     -1.38082    0.00000
   24     -1.22027    0.00000
   25     -0.50681    0.00000
   26     -0.44582    0.00000
   27     -0.43517    0.00000
   28     -0.35155    0.00000
   29     -0.24679    0.00000
   30     -0.05276    0.00000

Fermi level: -2.27081

Gap: 1.479 eV
Transition (v -> c):
  (s=0, k=0, n=20, [0.00, 0.00, 0.00]) -> (s=0, k=0, n=21, [0.00, 0.00, 0.00])
No difference between direct/indirect transitions

Forces in eV/Ang:
  0 Na    0.09820   -0.08288    0.03464
  1 Na    0.01913   -0.01348    0.04699
  2 Na   -0.07068    0.06852    0.09684
  3 Na   -0.03291    0.01990   -0.13227
  4 Na    0.02421   -0.02351   -0.03741
  5 Na   -0.03777    0.03156   -0.00886

System changes: positions 

Initializing position-dependent things.

Density initialized from wave functions
           .--------------------------------------.  
          /|                                      |  
         / |                                      |  
        /  |                                      |  
       /   |                                      |  
      /    |                                      |  
     /     |                                      |  
    /      |                                      |  
   /       |                                      |  
  /        |                                      |  
 *         |           Na                         |  
 |         |                                      |  
 |         |                Na                    |  
 |         |                                      |  
 |         |            Na                        |  
 |         |                    Na                |  
 |         |                                      |  
 |         |                 Na                   |  
 |         |                                      |  
 |         |             Na                       |  
 |         .--------------------------------------.  
 |        /                                      /   
 |       /                                      /    
 |      /                                      /     
 |     /                                      /      
 |    /                                      /       
 |   /                                      /        
 |  /                                      /         
 | /                                      /          
 |/                                      /           
 *--------------------------------------*            

Positions:
   0 Na    11.494873    4.987205    9.685823    ( 0.0000,  0.0000,  0.0000)
   1 Na     9.104835    7.125941   10.752820    ( 0.0000,  0.0000,  0.0000)
   2 Na     6.659973    9.312256   11.585252    ( 0.0000,  0.0000,  0.0000)
   3 Na     7.656696    8.025728    5.031072    ( 0.0000,  0.0000,  0.0000)
   4 Na     9.641489    6.446807    7.265559    ( 0.0000,  0.0000,  0.0000)
   5 Na     7.028311    8.713121    8.277670    ( 0.0000,  0.0000,  0.0000)

Unit cell:
           periodic     x           y           z      points  spacing
  1. axis:    no    16.000000    0.000000    0.000000    75     0.2133
  2. axis:    no     0.000000   16.000000    0.000000    75     0.2133
  3. axis:    no     0.000000    0.000000   16.000000    75     0.2133

  Lengths:  16.000000  16.000000  16.000000
  Angles:   90.000000  90.000000  90.000000

Effective grid spacing dv^(1/3) = 0.2133

     iter     time        total  log10-change:
                         energy   eigst   dens
iter:   1 17:37:46   -18.781120   -0.92
iter:   2 17:38:14   -18.863302   -1.60  -1.90
iter:   3 17:38:41   -19.056119   -1.80  -1.87
iter:   4 17:39:07   -18.868340   -1.81  -1.53
iter:   5 17:39:40   -18.670997   -2.10  -2.14
iter:   6 17:40:08   -18.769061   -2.30  -2.52
iter:   7 17:40:36   -18.779763   -2.54  -1.98
iter:   8 17:41:03   -18.806112   -2.80  -1.95
iter:   9 17:41:31   -18.823327   -2.89  -2.15
iter:  10 17:41:57   -18.831203   -3.19  -2.83
iter:  11 17:42:24   -18.807810   -3.20  -2.88
iter:  12 17:43:08   -18.768925   -3.55  -2.32
iter:  13 17:43:33   -18.801551   -3.66  -2.29
iter:  14 17:43:59   -18.813847   -3.69  -2.59
iter:  15 17:44:29   -18.810749c  -4.07  -3.32
iter:  16 17:44:55   -18.798185c  -4.21  -3.34
iter:  17 17:45:21   -18.796020c  -4.47  -2.98
iter:  18 17:45:48   -18.798118c  -4.57  -2.86
iter:  19 17:46:14   -18.801247c  -4.78  -3.12
iter:  20 17:46:40   -18.799696c  -4.92  -3.36
iter:  21 17:47:08   -18.800015c  -5.04  -3.57
iter:  22 17:47:35   -18.798240c  -5.11  -3.67
iter:  23 17:48:03   -18.796059c  -5.34  -3.34
iter:  24 17:48:30   -18.798742c  -5.44  -3.63
iter:  25 17:48:58   -18.798655c  -5.37  -3.78
iter:  26 17:49:24   -18.796887c  -5.46  -3.33
iter:  27 17:49:49   -18.798414c  -5.91  -3.58
iter:  28 17:50:16   -18.798537c  -6.17  -3.74
iter:  29 17:50:43   -18.798746c  -6.24  -3.99
iter:  30 17:51:10   -18.798692c  -6.51  -4.42c
iter:  31 17:51:37   -18.797864c  -6.65  -4.08c
iter:  32 17:52:04   -18.798508c  -6.51  -4.19c
iter:  33 17:52:33   -18.798608c  -6.90  -4.32c
iter:  34 17:53:00   -18.798132c  -7.22  -4.63c
iter:  35 17:53:28   -18.798190c  -7.45c -4.85c

Converged after 35 iterations.

Dipole moment: (0.023445, -0.012024, -0.014478) |e|*Ang

Energy contributions relative to reference atoms: (reference = -26511.662986)

Kinetic:        +25.084980
Potential:      -22.432725
External:        +0.000000
XC:             -21.302908
Entropy (-ST):   +0.000000
Local:           -0.147537
SIC:             +0.000000
--------------------------
Free energy:    -18.798190
Extrapolated:   -18.798190

HYB_GGA_XC_HSE06 + 0.25 * EXX(omega = 0.11 bohr^-1)
Short-range Coulomb: erfc(omega*r)/r (omega = 0.11 bohr^-1)
 Band  Eigenvalues  Occupancy
    0    -30.77549    2.00000
    1    -30.77276    2.00000
    2    -30.77046    2.00000
    3    -30.76894    2.00000
    4    -30.76668    2.00000
    5    -30.76624    2.00000
    6    -30.76408    2.00000
    7    -30.76402    2.00000
    8    -30.76102    2.00000
    9    -30.70810    2.00000
   10    -30.70045    2.00000
   11    -30.69450    2.00000
   12    -30.69347    2.00000
   13    -30.69191    2.00000
   14    -30.69040    2.00000
   15    -30.66353    2.00000
   16    -30.65747    2.00000
   17    -30.65386    2.00000
   18     -4.09364    2.00000
   19     -2.99538    2.00000
   20     -2.99319    2.00000
   21     -1.55436    0.00000
   22     -1.42098    0.00000
   23     -1.39574    0.00000
   24     -1.19107    0.00000
   25     -0.50956    0.00000
   26     -0.47422    0.00000
   27     -0.43322    0.00000
   28     -0.37737    0.00000
   29     -0.27264    0.00000
   30     -0.07761    0.00000

Fermi level: -2.27378

Gap: 1.439 eV
Transition (v -> c):
  (s=0, k=0, n=20, [0.00, 0.00, 0.00]) -> (s=0, k=0, n=21, [0.00, 0.00, 0.00])
No difference between direct/indirect transitions

Forces in eV/Ang:
  0 Na    0.03439   -0.02919    0.01125
  1 Na    0.00122   -0.00019    0.01267
  2 Na   -0.02217    0.02092    0.03020
  3 Na   -0.01124    0.00586   -0.04185
  4 Na    0.00420   -0.00495   -0.00993
  5 Na   -0.00630    0.00746   -0.00233

System changes: positions 

Initializing position-dependent things.

Density initialized from wave functions
           .--------------------------------------.  
          /|                                      |  
         / |                                      |  
        /  |                                      |  
       /   |                                      |  
      /    |                                      |  
     /     |                                      |  
    /      |                                      |  
   /       |                                      |  
  /        |                                      |  
 *         |           Na                         |  
 |         |                                      |  
 |         |                Na                    |  
 |         |                                      |  
 |         |            Na                        |  
 |         |                    Na                |  
 |         |                                      |  
 |         |                 Na                   |  
 |         |                                      |  
 |         |             Na                       |  
 |         .--------------------------------------.  
 |        /                                      /   
 |       /                                      /    
 |      /                                      /     
 |     /                                      /      
 |    /                                      /       
 |   /                                      /        
 |  /                                      /         
 | /                                      /          
 |/                                      /           
 *--------------------------------------*            

Positions:
   0 Na    11.526036    4.960901    9.696796    ( 0.0000,  0.0000,  0.0000)
   1 Na     9.110791    7.121757   10.767655    ( 0.0000,  0.0000,  0.0000)
   2 Na     6.637597    9.333935   11.615905    ( 0.0000,  0.0000,  0.0000)
   3 Na     7.646257    8.032020    4.989191    ( 0.0000,  0.0000,  0.0000)
   4 Na     9.649082    6.439416    7.253753    ( 0.0000,  0.0000,  0.0000)
   5 Na     7.016470    8.723062    8.274875    ( 0.0000,  0.0000,  0.0000)

Unit cell:
           periodic     x           y           z      points  spacing
  1. axis:    no    16.000000    0.000000    0.000000    75     0.2133
  2. axis:    no     0.000000   16.000000    0.000000    75     0.2133
  3. axis:    no     0.000000    0.000000   16.000000    75     0.2133

  Lengths:  16.000000  16.000000  16.000000
  Angles:   90.000000  90.000000  90.000000

Effective grid spacing dv^(1/3) = 0.2133

     iter     time        total  log10-change:
                         energy   eigst   dens
iter:   1 17:54:02   -18.786515   -1.61
iter:   2 17:54:31   -18.818135   -2.27  -2.26
iter:   3 17:54:59   -18.866426   -2.49  -2.22
iter:   4 17:55:27   -18.834562   -2.50  -1.88
iter:   5 17:55:54   -18.753492   -2.75  -2.47
iter:   6 17:56:23   -18.781588   -3.01  -2.75
iter:   7 17:56:50   -18.787606   -3.25  -2.31
iter:   8 17:57:18   -18.807456   -3.49  -2.35
iter:   9 17:57:46   -18.812729   -3.64  -2.55
iter:  10 17:58:11   -18.814198c  -3.91  -3.00
iter:  11 17:58:38   -18.806433c  -3.98  -3.25
iter:  12 17:59:04   -18.795427c  -4.23  -3.00
iter:  13 17:59:31   -18.804486c  -4.41  -3.40
iter:  14 17:59:59   -18.806076c  -4.64  -3.66
iter:  15 18:00:27   -18.802140c  -4.80  -3.68
iter:  16 18:00:56   -18.800940c  -4.97  -4.03c
iter:  17 18:01:25   -18.803932c  -5.07  -3.71
iter:  18 18:01:52   -18.802599c  -5.32  -3.36
Timing:                                      incl.     excl.
-------------------------------------------------------------------
Density initialized from wave functions:     1.005     1.005   0.0% |
 Symmetrize density:                         0.000     0.000   0.0% |
Forces:                                     13.688    13.688   0.4% |
Hamiltonian:                                16.772     0.032   0.0% |
 Atomic:                                     1.189     0.002   0.0% |
  XC Correction:                             1.187     1.187   0.0% |
 Calculate atomic Hamiltonians:              0.703     0.703   0.0% |
 Communicate:                                0.000     0.000   0.0% |
 Initialize Hamiltonian:                     0.002     0.002   0.0% |
 Poisson:                                    0.018     0.018   0.0% |
 XC 3D grid:                                14.828    14.828   0.5% |
LCAO initialization:                         0.240     0.011   0.0% |
 LCAO eigensolver:                           0.030     0.000   0.0% |
  Calculate projections:                     0.000     0.000   0.0% |
  DenseAtomicCorrection:                     0.000     0.000   0.0% |
  Distribute overlap matrix:                 0.000     0.000   0.0% |
  Orbital Layouts:                           0.003     0.003   0.0% |
  Potential matrix:                          0.027     0.027   0.0% |
 LCAO to grid:                               0.188     0.188   0.0% |
 Set positions (LCAO WFS):                   0.011     0.001   0.0% |
  Basic WFS set positions:                   0.000     0.000   0.0% |
  Basis functions set positions:             0.000     0.000   0.0% |
  P tci:                                     0.005     0.005   0.0% |
  ST tci:                                    0.001     0.001   0.0% |
  mktci:                                     0.004     0.004   0.0% |
PWDescriptor:                                0.010     0.010   0.0% |
Redistribute:                                0.001     0.001   0.0% |
SCF-cycle:                                3205.094     0.099   0.0% |
 Davidson:                                2679.785     5.941   0.2% |
  Subspace diag:                          1103.627     0.046   0.0% |
   calc_h_matrix:                         1102.605     0.797   0.0% |
    Apply H:                              1101.808  1101.537  34.0% |-------------|
     HMM T:                                  0.271     0.271   0.0% |
   diagonalize:                              0.030     0.030   0.0% |
   rotate_psi:                               0.946     0.946   0.0% |
  calc. matrices:                         1569.202     2.561   0.1% |
   Apply H:                               1566.641  1566.370  48.4% |------------------|
    HMM T:                                   0.271     0.271   0.0% |
  diagonalize:                               0.095     0.095   0.0% |
  rotate_psi:                                0.921     0.921   0.0% |
 Density:                                   40.086     0.001   0.0% |
  Atomic density matrices:                   0.046     0.046   0.0% |
  Mix:                                      22.887    22.887   0.7% |
  Multipole moments:                         0.010     0.010   0.0% |
  Pseudo density:                           17.142    17.141   0.5% |
   Symmetrize density:                       0.001     0.001   0.0% |
 Hamiltonian:                              484.998     0.879   0.0% |
  Atomic:                                   34.787     0.052   0.0% |
   XC Correction:                           34.735    34.735   1.1% |
  Calculate atomic Hamiltonians:            19.541    19.541   0.6% |
  Communicate:                               0.000     0.000   0.0% |
  Poisson:                                   0.470     0.470   0.0% |
  XC 3D grid:                              429.320   429.320  13.3% |----|
 Orthonormalize:                             0.124     0.000   0.0% |
  calc_s_matrix:                             0.023     0.023   0.0% |
  inverse-cholesky:                          0.002     0.002   0.0% |
  projections:                               0.084     0.084   0.0% |
  rotate_psi_s:                              0.016     0.016   0.0% |
Set symmetry:                                0.001     0.001   0.0% |
Other:                                       1.630     1.630   0.1% |
-------------------------------------------------------------------
Total:                                              3238.440 100.0%

Memory usage: 1.34 GiB
Date: Thu Feb 20 18:02:04 2025
