
  ___ ___ ___ _ _ _  
 |   |   |_  | | | | 
 | | | | | . | | | | 
 |__ |  _|___|_____|  25.1.0
 |___|_|             

User:   zoe@Zoes-MacBook-Air.local
Date:   Thu Feb 20 16:05:28 2025
Arch:   arm64
Pid:    92477
CWD:    /Users/zoe/Documents/GitHub/TIF320_Computitional_Materials_and_Molecular_Physics/A2
Python: 3.12.2
gpaw:   /opt/anaconda3/envs/tif320env/lib/python3.12/site-packages/gpaw
_gpaw:  /opt/anaconda3/envs/tif320env/lib/python3.12/site-packages/
        _gpaw.cpython-312-darwin.so
ase:    /opt/anaconda3/envs/tif320env/lib/python3.12/site-packages/ase (version 3.24.0)
numpy:  /opt/anaconda3/envs/tif320env/lib/python3.12/site-packages/numpy (version 2.0.1)
scipy:  /opt/anaconda3/envs/tif320env/lib/python3.12/site-packages/scipy (version 1.15.1)
libxc:  7.0.0
units:  Angstrom and eV
cores: 1
OpenMP: False
OMP_NUM_THREADS: 1

Input parameters:
  mode: lcao
  xc: PBE

System changes: positions, numbers, cell, pbc, initial_charges, initial_magmoms 

Initialize ...

species:
  Na:
    name: Sodium
    id: d7ecbc49209718622bcbe287195dca2a
    Z: 11.0
    valence: 7
    core: 4
    charge: 0.0
    file: /opt/anaconda3/envs/tif320env/gpaw-setups/gpaw-setups-24.11.0/Na.PBE.gz
    compensation charges: {type: gauss,
                           rc: 0.37,
                           lmax: 2}
    cutoffs: {filter: 2.17,
              core: 2.59}
    projectors:
      #              energy  rcut
      - 3s(1.00)    -2.744   1.201
      - 2p(6.00)   -28.672   1.217
      - 3p(0.00)    -0.743   1.217
      -  s          24.468   1.201
      -  d           0.000   1.238
  
    # Using partial waves for Na as LCAO basis

Reference energy: -26511.662986  # eV

Spin-paired calculation

Convergence criteria:
 Maximum [total energy] change in last 3 cyles: 0.0005 eV / valence electron
 Maximum integral of absolute [dens]ity change: 0.0001 electrons / valence electron
 Maximum integral of absolute [eigenst]ate change: 4e-08 eV^2 / valence electron
 Maximum number of scf [iter]ations: 333
 (Square brackets indicate name in SCF output, whereas a 'c' in
 the SCF output indicates the quantity has converged.)

Symmetries present (total): 1

  ( 1  0  0)
  ( 0  1  0)
  ( 0  0  1)

1 k-point (Gamma)
1 k-point in the irreducible part of the Brillouin zone
       k-points in crystal coordinates                weights
   0:     0.00000000    0.00000000    0.00000000          1/1

Wave functions: LCAO
  Diagonalizer: Serial LAPACK
  Atomic Correction: dense with blas
  Data-type: float
 

Occupation numbers: # Zero width 

Eigensolver
   LCAO using direct dense diagonalizer 

Densities:
  Coarse grid: 80*80*80 grid
  Fine grid: 160*160*160 grid
  Total Charge: 0.000000 

Density mixing:
  Method: separate
  Backend: pulay
  Linear mixing parameter: 0.25
  old densities: 3
  Damping of long wavelength oscillations: 1  # (no daming) 

Hamiltonian:
  XC and Coulomb potentials evaluated on a 160*160*160 grid
  Using the PBE Exchange-Correlation functional
  Interpolation: tri-quintic (5. degree polynomial)
  Poisson solver: FastPoissonSolver using
    Stencil: 6*3+1=19 point O(h^6) finite-difference Laplacian
    FFT axes: []
    FST axes: [np.int64(0), np.int64(1), np.int64(2)]
 

XC parameters: PBE with 2 nearest neighbor stencil

Memory estimate:
  Process memory now: 1105.86 MiB
  Calculator: 228.55 MiB
    Density: 148.73 MiB
      Arrays: 99.53 MiB
      Localized functions: 26.63 MiB
      Mixer: 22.57 MiB
    Hamiltonian: 67.06 MiB
      Arrays: 65.10 MiB
      XC: 0.00 MiB
      Poisson: 0.00 MiB
      vbar: 1.96 MiB
    Wavefunctions: 12.77 MiB
      C [qnM]: 0.01 MiB
      S, T [2 x qmm]: 0.03 MiB
      P [aqMi]: 0.00 MiB
      BasisFunctions: 12.73 MiB
      Eigensolver: 0.00 MiB

Total number of cores used: 1

Number of atoms: 6
Number of atomic orbitals: 42
Number of bands in calculation: 30
Number of valence electrons: 42
Bands to converge: occupied

... initialized

Initializing position-dependent things.

Density initialized from atomic densities
           .--------------------------------------.  
          /|                                      |  
         / |                                      |  
        /  |                                      |  
       /   |                                      |  
      /    |                                      |  
     /     |                                      |  
    /      |                                      |  
   /       |                                      |  
  /        |                                      |  
 *         |           Na                         |  
 |         |                                      |  
 |         |                Na                    |  
 |         |                                      |  
 |         |            Na                        |  
 |         |                    Na                |  
 |         |                                      |  
 |         |                 Na                   |  
 |         |                                      |  
 |         |             Na                       |  
 |         .--------------------------------------.  
 |        /                                      /   
 |       /                                      /    
 |      /                                      /     
 |     /                                      /      
 |    /                                      /       
 |   /                                      /        
 |  /                                      /         
 | /                                      /          
 |/                                      /           
 *--------------------------------------*            

Positions:
   0 Na    11.507086    4.976662    9.690627    ( 0.0000,  0.0000,  0.0000)
   1 Na     9.109757    7.122380   10.763683    ( 0.0000,  0.0000,  0.0000)
   2 Na     6.650113    9.321413   11.597417    ( 0.0000,  0.0000,  0.0000)
   3 Na     7.652382    8.027919    5.014188    ( 0.0000,  0.0000,  0.0000)
   4 Na     9.646596    6.441446    7.256912    ( 0.0000,  0.0000,  0.0000)
   5 Na     7.020450    8.720419    8.275476    ( 0.0000,  0.0000,  0.0000)

Unit cell:
           periodic     x           y           z      points  spacing
  1. axis:    no    16.000000    0.000000    0.000000    80     0.2000
  2. axis:    no     0.000000   16.000000    0.000000    80     0.2000
  3. axis:    no     0.000000    0.000000   16.000000    80     0.2000

  Lengths:  16.000000  16.000000  16.000000
  Angles:   90.000000  90.000000  90.000000

Effective grid spacing dv^(1/3) = 0.2000

     iter     time        total  log10-change:
                         energy   eigst   dens
iter:   1 16:05:31    -3.978646        c
iter:   2 16:05:32    -3.822329        c -1.34
iter:   3 16:05:33    -3.784239        c -1.53
iter:   4 16:05:34    -3.776257        c -1.91
iter:   5 16:05:35    -3.776045c       c -2.80
iter:   6 16:05:37    -3.776035c       c -3.25
iter:   7 16:05:38    -3.776026c       c -3.39
iter:   8 16:05:39    -3.776026c       c -4.44c

Converged after 8 iterations.

Dipole moment: (0.005797, -0.000288, 0.002067) |e|*Ang

Energy contributions relative to reference atoms: (reference = -26511.662986)

Kinetic:        +16.435875
Potential:      -13.713761
External:        +0.000000
XC:              -6.502834
Entropy (-ST):   +0.000000
Local:           +0.004694
SIC:             +0.000000
--------------------------
Free energy:     -3.776026
Extrapolated:    -3.776026

 Band  Eigenvalues  Occupancy
    0    -27.53963    2.00000
    1    -27.53640    2.00000
    2    -27.53506    2.00000
    3    -27.53380    2.00000
    4    -27.53326    2.00000
    5    -27.53062    2.00000
    6    -27.53056    2.00000
    7    -27.52843    2.00000
    8    -27.52782    2.00000
    9    -27.48466    2.00000
   10    -27.47407    2.00000
   11    -27.47253    2.00000
   12    -27.47099    2.00000
   13    -27.47095    2.00000
   14    -27.46969    2.00000
   15    -27.43647    2.00000
   16    -27.43531    2.00000
   17    -27.43180    2.00000
   18     -3.57258    2.00000
   19     -2.61359    2.00000
   20     -2.60911    2.00000
   21     -1.22596    0.00000
   22     -1.10516    0.00000
   23     -1.10218    0.00000
   24     -0.57206    0.00000
   25      0.20473    0.00000
   26      0.20879    0.00000
   27      0.28772    0.00000
   28      0.39721    0.00000
   29      0.40293    0.00000

Fermi level: -1.91753

Gap: 1.383 eV
Transition (v -> c):
  (s=0, k=0, n=20, [0.00, 0.00, 0.00]) -> (s=0, k=0, n=21, [0.00, 0.00, 0.00])
No difference between direct/indirect transitions

Forces in eV/Ang:
  0 Na    0.06328   -0.05148    0.01863
  1 Na    0.00408   -0.00085    0.04048
  2 Na   -0.03735    0.03525    0.05637
  3 Na   -0.02021    0.01194   -0.08116
  4 Na    0.01581   -0.01624   -0.02983
  5 Na   -0.02464    0.02381   -0.00390

System changes: positions 

Initializing position-dependent things.

Density initialized from wave functions
           .--------------------------------------.  
          /|                                      |  
         / |                                      |  
        /  |                                      |  
       /   |                                      |  
      /    |                                      |  
     /     |                                      |  
    /      |                                      |  
   /       |                                      |  
  /        |                                      |  
 *         |           Na                         |  
 |         |                                      |  
 |         |                Na                    |  
 |         |                                      |  
 |         |            Na                        |  
 |         |                    Na                |  
 |         |                                      |  
 |         |                 Na                   |  
 |         |                                      |  
 |         |             Na                       |  
 |         .--------------------------------------.  
 |        /                                      /   
 |       /                                      /    
 |      /                                      /     
 |     /                                      /      
 |    /                                      /       
 |   /                                      /        
 |  /                                      /         
 | /                                      /          
 |/                                      /           
 *--------------------------------------*            

Positions:
   0 Na    11.507990    4.975926    9.690893    ( 0.0000,  0.0000,  0.0000)
   1 Na     9.109815    7.122368   10.764261    ( 0.0000,  0.0000,  0.0000)
   2 Na     6.649579    9.321917   11.598222    ( 0.0000,  0.0000,  0.0000)
   3 Na     7.652094    8.028090    5.013028    ( 0.0000,  0.0000,  0.0000)
   4 Na     9.646822    6.441214    7.256486    ( 0.0000,  0.0000,  0.0000)
   5 Na     7.020098    8.720759    8.275420    ( 0.0000,  0.0000,  0.0000)

Unit cell:
           periodic     x           y           z      points  spacing
  1. axis:    no    16.000000    0.000000    0.000000    80     0.2000
  2. axis:    no     0.000000   16.000000    0.000000    80     0.2000
  3. axis:    no     0.000000    0.000000   16.000000    80     0.2000

  Lengths:  16.000000  16.000000  16.000000
  Angles:   90.000000  90.000000  90.000000

Effective grid spacing dv^(1/3) = 0.2000

     iter     time        total  log10-change:
                         energy   eigst   dens
iter:   1 16:05:40    -3.776369        c
iter:   2 16:05:41    -3.776369        c -4.51c
iter:   3 16:05:42    -3.776369c       c -4.71c

Converged after 3 iterations.

Dipole moment: (0.005670, -0.000246, 0.002107) |e|*Ang

Energy contributions relative to reference atoms: (reference = -26511.662986)

Kinetic:        +16.429369
Potential:      -13.710098
External:        +0.000000
XC:              -6.500459
Entropy (-ST):   +0.000000
Local:           +0.004819
SIC:             +0.000000
--------------------------
Free energy:     -3.776369
Extrapolated:    -3.776369

 Band  Eigenvalues  Occupancy
    0    -27.53926    2.00000
    1    -27.53617    2.00000
    2    -27.53473    2.00000
    3    -27.53346    2.00000
    4    -27.53292    2.00000
    5    -27.53042    2.00000
    6    -27.53032    2.00000
    7    -27.52817    2.00000
    8    -27.52751    2.00000
    9    -27.48480    2.00000
   10    -27.47429    2.00000
   11    -27.47277    2.00000
   12    -27.47128    2.00000
   13    -27.47112    2.00000
   14    -27.46991    2.00000
   15    -27.43661    2.00000
   16    -27.43549    2.00000
   17    -27.43201    2.00000
   18     -3.57179    2.00000
   19     -2.61328    2.00000
   20     -2.60892    2.00000
   21     -1.22619    0.00000
   22     -1.10536    0.00000
   23     -1.10248    0.00000
   24     -0.57126    0.00000
   25      0.20415    0.00000
   26      0.20817    0.00000
   27      0.28732    0.00000
   28      0.39761    0.00000
   29      0.40319    0.00000

Fermi level: -1.91755

Gap: 1.383 eV
Transition (v -> c):
  (s=0, k=0, n=20, [0.00, 0.00, 0.00]) -> (s=0, k=0, n=21, [0.00, 0.00, 0.00])
No difference between direct/indirect transitions

Forces in eV/Ang:
  0 Na    0.06266   -0.05091    0.01845
  1 Na    0.00386   -0.00075    0.03877
  2 Na   -0.03704    0.03500    0.05598
  3 Na   -0.01994    0.01185   -0.08035
  4 Na    0.01501   -0.01543   -0.02851
  5 Na   -0.02326    0.02276   -0.00367

System changes: positions 

Initializing position-dependent things.

Density initialized from wave functions
           .--------------------------------------.  
          /|                                      |  
         / |                                      |  
        /  |                                      |  
       /   |                                      |  
      /    |                                      |  
     /     |                                      |  
    /      |                                      |  
   /       |                                      |  
  /        |                                      |  
 *         |           Na                         |  
 |         |                                      |  
 |         |                Na                    |  
 |         |                                      |  
 |         |            Na                        |  
 |         |                    Na                |  
 |         |                                      |  
 |         |                 Na                   |  
 |         |                                      |  
 |         |             Na                       |  
 |         .--------------------------------------.  
 |        /                                      /   
 |       /                                      /    
 |      /                                      /     
 |     /                                      /      
 |    /                                      /       
 |   /                                      /        
 |  /                                      /         
 | /                                      /          
 |/                                      /           
 *--------------------------------------*            

Positions:
   0 Na    11.565482    4.929213    9.707824    ( 0.0000,  0.0000,  0.0000)
   1 Na     9.113363    7.121681   10.799854    ( 0.0000,  0.0000,  0.0000)
   2 Na     6.615592    9.354028   11.649586    ( 0.0000,  0.0000,  0.0000)
   3 Na     7.633798    8.038961    4.939299    ( 0.0000,  0.0000,  0.0000)
   4 Na     9.660604    6.427045    7.230312    ( 0.0000,  0.0000,  0.0000)
   5 Na     6.998741    8.741653    8.272051    ( 0.0000,  0.0000,  0.0000)

Unit cell:
           periodic     x           y           z      points  spacing
  1. axis:    no    16.000000    0.000000    0.000000    80     0.2000
  2. axis:    no     0.000000   16.000000    0.000000    80     0.2000
  3. axis:    no     0.000000    0.000000   16.000000    80     0.2000

  Lengths:  16.000000  16.000000  16.000000
  Angles:   90.000000  90.000000  90.000000

Effective grid spacing dv^(1/3) = 0.2000

     iter     time        total  log10-change:
                         energy   eigst   dens
iter:   1 16:05:44    -3.787745        c
iter:   2 16:05:45    -3.787234        c -2.67
iter:   3 16:05:46    -3.787016c       c -2.91
iter:   4 16:05:47    -3.786974c       c -3.28
iter:   5 16:05:48    -3.786973c       c -4.18c

Converged after 5 iterations.

Dipole moment: (0.002535, 0.002178, 0.002515) |e|*Ang

Energy contributions relative to reference atoms: (reference = -26511.662986)

Kinetic:        +14.226258
Potential:      -11.876947
External:        +0.000000
XC:              -6.139904
Entropy (-ST):   +0.000000
Local:           +0.003619
SIC:             +0.000000
--------------------------
Free energy:     -3.786973
Extrapolated:    -3.786973

 Band  Eigenvalues  Occupancy
    0    -27.55060    2.00000
    1    -27.54976    2.00000
    2    -27.54841    2.00000
    3    -27.54660    2.00000
    4    -27.54627    2.00000
    5    -27.54469    2.00000
    6    -27.54269    2.00000
    7    -27.54142    2.00000
    8    -27.53899    2.00000
    9    -27.51690    2.00000
   10    -27.50993    2.00000
   11    -27.50858    2.00000
   12    -27.50817    2.00000
   13    -27.50504    2.00000
   14    -27.50463    2.00000
   15    -27.46721    2.00000
   16    -27.46674    2.00000
   17    -27.46384    2.00000
   18     -3.52470    2.00000
   19     -2.59523    2.00000
   20     -2.59125    2.00000
   21     -1.24290    0.00000
   22     -1.11652    0.00000
   23     -1.11371    0.00000
   24     -0.52082    0.00000
   25      0.17006    0.00000
   26      0.17145    0.00000
   27      0.27070    0.00000
   28      0.42065    0.00000
   29      0.42447    0.00000

Fermi level: -1.91707

Gap: 1.348 eV
Transition (v -> c):
  (s=0, k=0, n=20, [0.00, 0.00, 0.00]) -> (s=0, k=0, n=21, [0.00, 0.00, 0.00])
No difference between direct/indirect transitions

Forces in eV/Ang:
  0 Na   -0.00017    0.00117   -0.00008
  1 Na    0.00447   -0.00413   -0.01304
  2 Na   -0.00597    0.00354    0.01051
  3 Na   -0.00394    0.00030   -0.00277
  4 Na   -0.00567    0.00477    0.01194
  5 Na    0.01246   -0.00574   -0.00441

System changes: positions 

Initializing position-dependent things.

Density initialized from wave functions
           .--------------------------------------.  
          /|                                      |  
         / |                                      |  
        /  |                                      |  
       /   |                                      |  
      /    |                                      |  
     /     |                                      |  
    /      |                                      |  
   /       |                                      |  
  /        |                                      |  
 *         |           Na                         |  
 |         |                                      |  
 |         |                Na                    |  
 |         |                                      |  
 |         |            Na                        |  
 |         |                    Na                |  
 |         |                                      |  
 |         |                 Na                   |  
 |         |                                      |  
 |         |             Na                       |  
 |         .--------------------------------------.  
 |        /                                      /   
 |       /                                      /    
 |      /                                      /     
 |     /                                      /      
 |    /                                      /       
 |   /                                      /        
 |  /                                      /         
 | /                                      /          
 |/                                      /           
 *--------------------------------------*            

Positions:
   0 Na    11.564974    4.929640    9.707674    ( 0.0000,  0.0000,  0.0000)
   1 Na     9.113396    7.121629   10.799359    ( 0.0000,  0.0000,  0.0000)
   2 Na     6.615807    9.353795   11.649283    ( 0.0000,  0.0000,  0.0000)
   3 Na     7.633903    8.038869    4.939908    ( 0.0000,  0.0000,  0.0000)
   4 Na     9.660404    6.427236    7.230709    ( 0.0000,  0.0000,  0.0000)
   5 Na     6.999103    8.741390    8.272017    ( 0.0000,  0.0000,  0.0000)

Unit cell:
           periodic     x           y           z      points  spacing
  1. axis:    no    16.000000    0.000000    0.000000    80     0.2000
  2. axis:    no     0.000000   16.000000    0.000000    80     0.2000
  3. axis:    no     0.000000    0.000000   16.000000    80     0.2000

  Lengths:  16.000000  16.000000  16.000000
  Angles:   90.000000  90.000000  90.000000

Effective grid spacing dv^(1/3) = 0.2000

     iter     time        total  log10-change:
                         energy   eigst   dens
iter:   1 16:05:49    -3.786984        c
iter:   2 16:05:50    -3.786984        c -4.42c
Timing:                                       incl.     excl.
--------------------------------------------------------------------
Basic WFS set positions:                      0.001     0.000   0.0% |
 Redistribute:                                0.000     0.000   0.0% |
Basis functions set positions:                0.051     0.051   0.2% |
Forces:                                       0.889     0.264   1.2% |
 LCAO forces:                                 0.626     0.001   0.0% |
  Atomic Hamiltonian force:                   0.002     0.002   0.0% |
  Initial:                                    0.000     0.000   0.0% |
   Get density matrix:                        0.000     0.000   0.0% |
  Paw correction:                             0.001     0.001   0.0% |
  Potential:                                  0.596     0.596   2.6% ||
  TCI derivative:                             0.026     0.026   0.1% |
  Wait for sum:                               0.000     0.000   0.0% |
LCAO WFS Initialize:                          4.016     0.030   0.1% |
 Density initialized from wave functions:     0.198     0.097   0.4% |
  Calculate density matrix:                   0.000     0.000   0.0% |
  Construct density:                          0.101     0.101   0.4% |
  Symmetrize density:                         0.000     0.000   0.0% |
 Hamiltonian:                                 3.788     0.000   0.0% |
  Atomic:                                     0.355     0.002   0.0% |
   XC Correction:                             0.354     0.354   1.6% ||
  Calculate atomic Hamiltonians:              0.024     0.024   0.1% |
  Communicate:                                0.000     0.000   0.0% |
  Hartree integrate/restrict:                 0.064     0.064   0.3% |
  Initialize Hamiltonian:                     0.000     0.000   0.0% |
  Poisson:                                    1.073     0.055   0.2% |
   Communicate from 1D:                       0.119     0.119   0.5% |
   Communicate from 2D:                       0.120     0.120   0.5% |
   Communicate to 1D:                         0.135     0.135   0.6% |
   Communicate to 2D:                         0.121     0.121   0.5% |
   FFT 1D:                                    0.140     0.140   0.6% |
   FFT 2D:                                    0.383     0.383   1.7% ||
  XC 3D grid:                                 2.257     2.257  10.0% |---|
  vbar:                                       0.014     0.014   0.1% |
P tci:                                        0.017     0.017   0.1% |
Redistribute:                                 0.001     0.001   0.0% |
SCF-cycle:                                   15.808     0.005   0.0% |
 Density:                                     0.940     0.000   0.0% |
  Atomic density matrices:                    0.006     0.006   0.0% |
  Mix:                                        0.424     0.424   1.9% ||
  Multipole moments:                          0.001     0.001   0.0% |
  Normalize:                                  0.004     0.004   0.0% |
  Pseudo density:                             0.504     0.006   0.0% |
   Calculate density matrix:                  0.001     0.001   0.0% |
   Construct density:                         0.498     0.498   2.2% ||
   Symmetrize density:                        0.000     0.000   0.0% |
 Hamiltonian:                                14.231     0.033   0.1% |
  Atomic:                                     1.409     0.007   0.0% |
   XC Correction:                             1.401     1.401   6.2% |-|
  Calculate atomic Hamiltonians:              0.089     0.089   0.4% |
  Communicate:                                0.000     0.000   0.0% |
  Hartree integrate/restrict:                 0.235     0.235   1.0% |
  Poisson:                                    4.096     0.144   0.6% |
   Communicate from 1D:                       0.455     0.455   2.0% ||
   Communicate from 2D:                       0.507     0.507   2.2% ||
   Communicate to 1D:                         0.501     0.501   2.2% ||
   Communicate to 2D:                         0.507     0.507   2.2% ||
   FFT 1D:                                    0.576     0.576   2.5% ||
   FFT 2D:                                    1.405     1.405   6.2% |-|
  XC 3D grid:                                 8.333     8.333  36.8% |--------------|
  vbar:                                       0.035     0.035   0.2% |
 LCAO eigensolver:                            0.632     0.001   0.0% |
  Calculate projections:                      0.001     0.001   0.0% |
  DenseAtomicCorrection:                      0.003     0.003   0.0% |
  Distribute overlap matrix:                  0.000     0.000   0.0% |
  Orbital Layouts:                            0.008     0.008   0.0% |
  Potential matrix:                           0.620     0.620   2.7% ||
ST tci:                                       0.006     0.006   0.0% |
Set symmetry:                                 0.000     0.000   0.0% |
TCI: Evaluate splines:                        0.029     0.029   0.1% |
mktci:                                        0.003     0.003   0.0% |
Other:                                        1.820     1.820   8.0% |--|
--------------------------------------------------------------------
Total:                                                 22.641 100.0%

Memory usage: 1.16 GiB
Date: Thu Feb 20 16:05:51 2025
