6
Lattice="16.0 0.0 0.0 0.0 16.0 0.0 0.0 0.0 16.0" Properties=species:S:1:pos:R:3:magmoms:R:1:forces:R:3 energy=-5.4250982370581795 free_energy=-5.4250982370581795 dipole="0.018490728655510793 -0.009490913997916092 -0.012008130161310367" magmom=0.0 pbc="F F F"
Na      11.42252059       5.04847002       9.66252540       0.00000000       0.00026780      -0.00007615       0.00082063
Na       9.09149345       7.13421256      10.70336742       0.00000000      -0.00212348       0.00161707      -0.00498983
Na       6.70821287       9.26443606      11.51458160       0.00000000      -0.00023731      -0.00079617      -0.00199636
Na       7.67976560       8.01068448       5.12536532       0.00000000      -0.00054514      -0.00109123       0.00029972
Na       9.61531662       6.47123905       7.30318642       0.00000000      -0.00469328       0.00350410       0.00308899
Na       7.06856571       8.68211488       8.28927362       0.00000000       0.00746762      -0.00297320       0.00273399
