6
Lattice="16.0 0.0 0.0 0.0 16.0 0.0 0.0 0.0 16.0" Properties=species:S:1:pos:R:3:magmoms:R:1:forces:R:3 energy=-3.8036735924269647 free_energy=-3.8036735924269647 dipole="-0.06175228212625996 -0.09946349904589626 -0.03897162218308141" magmom=0.0 pbc="F F F"
Na       8.26611229       9.59989898       8.69607182       0.00000000       0.00280077      -0.00874390      -0.00342972
Na       6.35868440       8.06187843      11.07315087       0.00000000       0.00240355      -0.00363510       0.00193925
Na       4.89386658       9.98730897       8.31517818       0.00000000      -0.00621305       0.00386404       0.00330703
Na       7.18184991       9.82505838       5.46001034       0.00000000      -0.00168297       0.00497367      -0.00180843
Na      10.07897627       7.79884972       6.42580894       0.00000000       0.00159608      -0.00262324       0.00430492
Na       9.54145990       6.66126378       9.88040704       0.00000000       0.00284174       0.00257996       0.00174308
