
  ___ ___ ___ _ _ _  
 |   |   |_  | | | | 
 | | | | | . | | | | 
 |__ |  _|___|_____|  25.1.0
 |___|_|             

User:   zoe@dhcp-140-47.vpn.chalmers.se
Date:   Sun Feb 16 17:51:28 2025
Arch:   arm64
Pid:    59049
CWD:    /Users/zoe/Documents/GitHub/TIF320_Computitional_Materials_and_Molecular_Physics
Python: 3.12.2
gpaw:   /opt/anaconda3/envs/tif320env/lib/python3.12/site-packages/gpaw
_gpaw:  /opt/anaconda3/envs/tif320env/lib/python3.12/site-packages/
        _gpaw.cpython-312-darwin.so
ase:    /opt/anaconda3/envs/tif320env/lib/python3.12/site-packages/ase (version 3.24.0)
numpy:  /opt/anaconda3/envs/tif320env/lib/python3.12/site-packages/numpy (version 2.0.1)
scipy:  /opt/anaconda3/envs/tif320env/lib/python3.12/site-packages/scipy (version 1.15.1)
libxc:  7.0.0
units:  Angstrom and eV
cores: 1
OpenMP: False
OMP_NUM_THREADS: 1

Input parameters:
  h: 0.15
  mode: fd
  xc: PBE

System changes: positions, numbers, cell, pbc, initial_charges, initial_magmoms 

Initialize ...

species:
  Na:
    name: Sodium
    id: d7ecbc49209718622bcbe287195dca2a
    Z: 11.0
    valence: 7
    core: 4
    charge: 0.0
    file: /opt/anaconda3/envs/tif320env/gpaw-setups/gpaw-setups-24.11.0/Na.PBE.gz
    compensation charges: {type: gauss,
                           rc: 0.37,
                           lmax: 2}
    cutoffs: {filter: 2.17,
              core: 2.59}
    projectors:
      #              energy  rcut
      - 3s(1.00)    -2.744   1.201
      - 2p(6.00)   -28.672   1.217
      - 3p(0.00)    -0.743   1.217
      -  s          24.468   1.201
      -  d           0.000   1.238
  
    # Using partial waves for Na as LCAO basis

Reference energy: -26511.662986  # eV

Spin-paired calculation

Convergence criteria:
 Maximum [total energy] change in last 3 cyles: 0.0005 eV / valence electron
 Maximum integral of absolute [dens]ity change: 0.0001 electrons / valence electron
 Maximum integral of absolute [eigenst]ate change: 4e-08 eV^2 / valence electron
 Maximum number of scf [iter]ations: 333
 (Square brackets indicate name in SCF output, whereas a 'c' in
 the SCF output indicates the quantity has converged.)

Symmetries present (total): 1

  ( 1  0  0)
  ( 0  1  0)
  ( 0  0  1)

1 k-point (Gamma)
1 k-point in the irreducible part of the Brillouin zone
       k-points in crystal coordinates                weights
   0:     0.00000000    0.00000000    0.00000000          1/1

Wave functions: Uniform real-space grid
  Kinetic energy operator: 6*3+1=19 point O(h^6) finite-difference Laplacian
  ScaLapack parameters: grid=1x1, blocksize=None
  Wavefunction extrapolation:
    Improved wavefunction reuse through dual PAW basis 

Occupation numbers: # Zero width 

Eigensolver
   Davidson(niter=2) 

Densities:
  Coarse grid: 108*108*108 grid
  Fine grid: 216*216*216 grid
  Total Charge: 0.000000 

Density mixing:
  Method: separate
  Backend: pulay
  Linear mixing parameter: 0.25
  old densities: 3
  Damping of long wavelength oscillations: 1  # (no daming) 

Hamiltonian:
  XC and Coulomb potentials evaluated on a 216*216*216 grid
  Using the PBE Exchange-Correlation functional
  Interpolation: tri-quintic (5. degree polynomial)
  Poisson solver: FastPoissonSolver using
    Stencil: 6*3+1=19 point O(h^6) finite-difference Laplacian
    FFT axes: []
    FST axes: [np.int64(0), np.int64(1), np.int64(2)]
 

XC parameters: PBE with 2 nearest neighbor stencil

Memory estimate:
  Process memory now: 3170.08 MiB
  Calculator: 1149.00 MiB
    Density: 367.76 MiB
      Arrays: 246.16 MiB
      Localized functions: 65.52 MiB
      Mixer: 56.08 MiB
    Hamiltonian: 165.81 MiB
      Arrays: 160.99 MiB
      XC: 0.00 MiB
      Poisson: 0.00 MiB
      vbar: 4.82 MiB
    Wavefunctions: 615.43 MiB
      Arrays psit_nG: 280.39 MiB
      Eigensolver: 327.19 MiB
      Projections: 0.02 MiB
      Projectors: 7.83 MiB

Total number of cores used: 1

Number of atoms: 6
Number of atomic orbitals: 42
Number of bands in calculation: 30
Number of valence electrons: 42
Bands to converge: occupied

... initialized

Initializing position-dependent things.

Density initialized from atomic densities
Creating initial wave functions:
  30 bands from LCAO basis set

           .--------------------------------------.  
          /|                                      |  
         / |                                      |  
        /  |                                      |  
       /   |                                      |  
      /    |                                      |  
     /     |                                      |  
    /      |                                      |  
   /       |                                      |  
  /        |                                      |  
 *         |                                      |  
 |         |          Na                          |  
 |         |                                      |  
 |         |       Na      NNa                    |  
 |         |                                      |  
 |         |                                      |  
 |         |                                      |  
 |         |             Na   Na                  |  
 |         |                                      |  
 |         |                                      |  
 |         .--------------------------------------.  
 |        /                                      /   
 |       /                                      /    
 |      /                                      /     
 |     /                                      /      
 |    /                                      /       
 |   /                                      /        
 |  /                                      /         
 | /                                      /          
 |/                                      /           
 *--------------------------------------*            

Positions:
   0 Na     8.272249    9.611605    8.691371    ( 0.0000,  0.0000,  0.0000)
   1 Na     6.385737    8.074073   11.004240    ( 0.0000,  0.0000,  0.0000)
   2 Na     4.959531    9.964331    8.309506    ( 0.0000,  0.0000,  0.0000)
   3 Na     7.191200    9.801549    5.513382    ( 0.0000,  0.0000,  0.0000)
   4 Na    10.025291    7.801784    6.481258    ( 0.0000,  0.0000,  0.0000)
   5 Na     9.501905    6.707342    9.856649    ( 0.0000,  0.0000,  0.0000)

Unit cell:
           periodic     x           y           z      points  spacing
  1. axis:    no    16.000000    0.000000    0.000000   108     0.1481
  2. axis:    no     0.000000   16.000000    0.000000   108     0.1481
  3. axis:    no     0.000000    0.000000   16.000000   108     0.1481

  Lengths:  16.000000  16.000000  16.000000
  Angles:   90.000000  90.000000  90.000000

Effective grid spacing dv^(1/3) = 0.1481

     iter     time        total  log10-change:
                         energy   eigst   dens
iter:   1 17:51:38    -5.020921
iter:   2 17:51:43    -4.901933   -0.16  -1.30
iter:   3 17:51:48    -4.915877   -0.14  -1.51
iter:   4 17:51:53    -4.954827   -0.34  -1.92
iter:   5 17:51:58    -4.978082   -0.55  -2.28
iter:   6 17:52:02    -4.991399   -0.76  -2.47
iter:   7 17:52:07    -4.999333   -1.01  -2.55
iter:   8 17:52:12    -5.004902c  -1.19  -2.84
iter:   9 17:52:17    -5.008749c  -1.39  -2.84
iter:  10 17:52:21    -5.011234c  -1.56  -3.09
iter:  11 17:52:26    -5.012935c  -1.72  -3.24
iter:  12 17:52:31    -5.014095c  -1.88  -3.60
iter:  13 17:52:36    -5.014889c  -2.05  -3.59
iter:  14 17:52:41    -5.015473c  -2.19  -3.39
iter:  15 17:52:45    -5.015879c  -2.34  -3.10
iter:  16 17:52:50    -5.016149c  -2.51  -3.00
iter:  17 17:52:55    -5.016317c  -2.69  -3.00
iter:  18 17:52:59    -5.016364c  -2.91  -3.04
iter:  19 17:53:04    -5.016442c  -3.10  -3.57
iter:  20 17:53:09    -5.016499c  -3.27  -3.79
iter:  21 17:53:14    -5.016539c  -3.43  -4.00c
iter:  22 17:53:19    -5.016566c  -3.60  -4.48c
iter:  23 17:53:23    -5.016585c  -3.76  -4.41c
iter:  24 17:53:28    -5.016599c  -3.91  -4.24c
iter:  25 17:53:33    -5.016608c  -4.06  -4.01c
iter:  26 17:53:37    -5.016615c  -4.20  -3.84
iter:  27 17:53:42    -5.016621c  -4.34  -4.02c
iter:  28 17:53:47    -5.016623c  -4.53  -3.84
iter:  29 17:53:52    -5.016626c  -4.67  -4.09c
iter:  30 17:53:56    -5.016627c  -4.86  -4.03c
iter:  31 17:54:01    -5.016629c  -4.99  -4.43c
iter:  32 17:54:05    -5.016629c  -5.19  -4.47c
iter:  33 17:54:10    -5.016630c  -5.33  -4.82c
iter:  34 17:54:15    -5.016630c  -5.46  -4.97c
iter:  35 17:54:20    -5.016631c  -5.62  -5.16c
iter:  36 17:54:25    -5.016631c  -5.76  -5.52c
iter:  37 17:54:29    -5.016631c  -5.91  -5.65c
iter:  38 17:54:34    -5.016631c  -6.05  -5.41c
iter:  39 17:54:39    -5.016631c  -6.19  -5.16c
iter:  40 17:54:44    -5.016631c  -6.32  -5.08c
iter:  41 17:54:49    -5.016632c  -6.44  -5.00c
iter:  42 17:54:54    -5.016632c  -6.58  -4.89c
iter:  43 17:54:59    -5.016632c  -6.73  -4.85c
iter:  44 17:55:03    -5.016632c  -6.84  -4.92c
iter:  45 17:55:08    -5.016632c  -7.03  -4.81c
iter:  46 17:55:13    -5.016632c  -7.21  -5.66c
iter:  47 17:55:18    -5.016632c  -7.33  -5.74c
iter:  48 17:55:23    -5.016632c  -7.46c -6.24c

Converged after 48 iterations.

Dipole moment: (-0.090306, -0.098999, -0.031669) |e|*Ang

Energy contributions relative to reference atoms: (reference = -26511.662986)

Kinetic:         +4.855379
Potential:       -4.554964
External:        +0.000000
XC:              -5.131360
Entropy (-ST):   +0.000000
Local:           -0.185686
SIC:             +0.000000
--------------------------
Free energy:     -5.016632
Extrapolated:    -5.016632

 Band  Eigenvalues  Occupancy
    0    -27.94751    2.00000
    1    -27.94567    2.00000
    2    -27.94445    2.00000
    3    -27.94173    2.00000
    4    -27.94041    2.00000
    5    -27.93997    2.00000
    6    -27.93791    2.00000
    7    -27.93605    2.00000
    8    -27.93291    2.00000
    9    -27.93185    2.00000
   10    -27.92370    2.00000
   11    -27.92267    2.00000
   12    -27.91431    2.00000
   13    -27.91397    2.00000
   14    -27.91188    2.00000
   15    -27.90735    2.00000
   16    -27.88505    2.00000
   17    -27.88477    2.00000
   18     -4.10102    2.00000
   19     -2.97498    2.00000
   20     -2.97256    2.00000
   21     -1.86573    0.00000
   22     -1.69493    0.00000
   23     -1.68165    0.00000
   24     -1.34869    0.00000
   25     -0.82484    0.00000
   26     -0.81562    0.00000
   27     -0.42014    0.00000
   28     -0.40540    0.00000
   29     -0.30123    0.00000

Fermi level: -2.41915

Gap: 1.107 eV
Transition (v -> c):
  (s=0, k=0, n=20, [0.00, 0.00, 0.00]) -> (s=0, k=0, n=21, [0.00, 0.00, 0.00])
No difference between direct/indirect transitions

Forces in eV/Ang:
  0 Na    0.00530    0.00851    0.00031
  1 Na   -0.00547   -0.00373    0.00063
  2 Na   -0.00501    0.00024   -0.00124
  3 Na    0.00305   -0.00371   -0.00360
  4 Na    0.00262   -0.00383   -0.00572
  5 Na   -0.00139   -0.00148    0.00014

System changes: positions 

Initializing position-dependent things.

Density initialized from wave functions
           .--------------------------------------.  
          /|                                      |  
         / |                                      |  
        /  |                                      |  
       /   |                                      |  
      /    |                                      |  
     /     |                                      |  
    /      |                                      |  
   /       |                                      |  
  /        |                                      |  
 *         |                                      |  
 |         |          Na                          |  
 |         |                                      |  
 |         |       Na      NNa                    |  
 |         |                                      |  
 |         |                                      |  
 |         |                                      |  
 |         |             Na   Na                  |  
 |         |                                      |  
 |         |                                      |  
 |         .--------------------------------------.  
 |        /                                      /   
 |       /                                      /    
 |      /                                      /     
 |     /                                      /      
 |    /                                      /       
 |   /                                      /        
 |  /                                      /         
 | /                                      /          
 |/                                      /           
 *--------------------------------------*            

Positions:
   0 Na     8.272324    9.611727    8.691376    ( 0.0000,  0.0000,  0.0000)
   1 Na     6.385659    8.074020   11.004249    ( 0.0000,  0.0000,  0.0000)
   2 Na     4.959459    9.964335    8.309488    ( 0.0000,  0.0000,  0.0000)
   3 Na     7.191243    9.801496    5.513330    ( 0.0000,  0.0000,  0.0000)
   4 Na    10.025329    7.801729    6.481176    ( 0.0000,  0.0000,  0.0000)
   5 Na     9.501886    6.707321    9.856651    ( 0.0000,  0.0000,  0.0000)

Unit cell:
           periodic     x           y           z      points  spacing
  1. axis:    no    16.000000    0.000000    0.000000   108     0.1481
  2. axis:    no     0.000000   16.000000    0.000000   108     0.1481
  3. axis:    no     0.000000    0.000000   16.000000   108     0.1481

  Lengths:  16.000000  16.000000  16.000000
  Angles:   90.000000  90.000000  90.000000

Effective grid spacing dv^(1/3) = 0.1481

     iter     time        total  log10-change:
                         energy   eigst   dens
iter:   1 17:55:29    -5.016635   -6.14
iter:   2 17:55:34    -5.016635   -6.96  -4.97c
iter:   3 17:55:39    -5.016635c  -7.37  -5.31c
iter:   4 17:55:43    -5.016635c  -7.57c -5.54c

Converged after 4 iterations.

Dipole moment: (-0.090306, -0.098991, -0.031689) |e|*Ang

Energy contributions relative to reference atoms: (reference = -26511.662986)

Kinetic:         +4.852954
Potential:       -4.553092
External:        +0.000000
XC:              -5.130851
Entropy (-ST):   +0.000000
Local:           -0.185647
SIC:             +0.000000
--------------------------
Free energy:     -5.016635
Extrapolated:    -5.016635

 Band  Eigenvalues  Occupancy
    0    -27.94755    2.00000
    1    -27.94570    2.00000
    2    -27.94450    2.00000
    3    -27.94176    2.00000
    4    -27.94044    2.00000
    5    -27.94000    2.00000
    6    -27.93796    2.00000
    7    -27.93610    2.00000
    8    -27.93295    2.00000
    9    -27.93189    2.00000
   10    -27.92374    2.00000
   11    -27.92271    2.00000
   12    -27.91441    2.00000
   13    -27.91400    2.00000
   14    -27.91194    2.00000
   15    -27.90739    2.00000
   16    -27.88515    2.00000
   17    -27.88487    2.00000
   18     -4.10099    2.00000
   19     -2.97495    2.00000
   20     -2.97257    2.00000
   21     -1.86579    0.00000
   22     -1.69496    0.00000
   23     -1.68168    0.00000
   24     -1.34867    0.00000
   25     -0.82492    0.00000
   26     -0.81574    0.00000
   27     -0.42022    0.00000
   28     -0.40563    0.00000
   29     -0.30139    0.00000

Fermi level: -2.41918

Gap: 1.107 eV
Transition (v -> c):
  (s=0, k=0, n=20, [0.00, 0.00, 0.00]) -> (s=0, k=0, n=21, [0.00, 0.00, 0.00])
No difference between direct/indirect transitions

Forces in eV/Ang:
  0 Na    0.00522    0.00840    0.00028
  1 Na   -0.00539   -0.00370    0.00054
  2 Na   -0.00490    0.00023   -0.00125
  3 Na    0.00301   -0.00369   -0.00355
  4 Na    0.00257   -0.00378   -0.00564
  5 Na   -0.00140   -0.00145    0.00013

Timing:                                      incl.     excl.
-------------------------------------------------------------------
Density initialized from wave functions:     0.057     0.057   0.0% |
 Symmetrize density:                         0.000     0.000   0.0% |
Forces:                                      1.011     1.011   0.4% |
Hamiltonian:                                 2.975     0.000   0.0% |
 Atomic:                                     0.123     0.001   0.0% |
  XC Correction:                             0.123     0.123   0.0% |
 Calculate atomic Hamiltonians:              0.022     0.022   0.0% |
 Communicate:                                0.000     0.000   0.0% |
 Hartree integrate/restrict:                 0.070     0.070   0.0% |
 Initialize Hamiltonian:                     0.000     0.000   0.0% |
 Poisson:                                    0.979     0.046   0.0% |
  Communicate from 1D:                       0.114     0.114   0.0% |
  Communicate from 2D:                       0.114     0.114   0.0% |
  Communicate to 1D:                         0.094     0.094   0.0% |
  Communicate to 2D:                         0.099     0.099   0.0% |
  FFT 1D:                                    0.167     0.167   0.1% |
  FFT 2D:                                    0.346     0.346   0.1% |
 XC 3D grid:                                 1.766     1.766   0.7% |
 vbar:                                       0.014     0.014   0.0% |
LCAO initialization:                         0.271     0.011   0.0% |
 LCAO eigensolver:                           0.059     0.000   0.0% |
  Calculate projections:                     0.000     0.000   0.0% |
  DenseAtomicCorrection:                     0.000     0.000   0.0% |
  Distribute overlap matrix:                 0.000     0.000   0.0% |
  Orbital Layouts:                           0.000     0.000   0.0% |
  Potential matrix:                          0.059     0.059   0.0% |
 LCAO to grid:                               0.195     0.195   0.1% |
 Set positions (LCAO WFS):                   0.006     0.001   0.0% |
  Basic WFS set positions:                   0.000     0.000   0.0% |
  Basis functions set positions:             0.000     0.000   0.0% |
  P tci:                                     0.004     0.004   0.0% |
  ST tci:                                    0.001     0.001   0.0% |
  mktci:                                     0.001     0.001   0.0% |
Redistribute:                                0.000     0.000   0.0% |
SCF-cycle:                                 247.310     0.024   0.0% |
 Davidson:                                 175.091    65.853  25.8% |---------|
  Apply hamiltonian:                        20.093    20.093   7.9% |--|
  Subspace diag:                            23.084     0.002   0.0% |
   calc_h_matrix:                           19.654     2.699   1.1% |
    Apply hamiltonian:                      16.955    16.955   6.6% |--|
   diagonalize:                              0.009     0.009   0.0% |
   rotate_psi:                               3.419     3.419   1.3% ||
  calc. matrices:                           59.615    23.704   9.3% |---|
   Apply hamiltonian:                       35.911    35.911  14.1% |-----|
  diagonalize:                               0.078     0.078   0.0% |
  rotate_psi:                                6.369     6.369   2.5% ||
 Density:                                    3.496     0.000   0.0% |
  Atomic density matrices:                   0.017     0.017   0.0% |
  Mix:                                       2.803     2.803   1.1% |
  Multipole moments:                         0.003     0.003   0.0% |
  Pseudo density:                            0.672     0.672   0.3% |
   Symmetrize density:                       0.000     0.000   0.0% |
 Hamiltonian:                               68.415     0.002   0.0% |
  Atomic:                                    2.653     0.013   0.0% |
   XC Correction:                            2.640     2.640   1.0% |
  Calculate atomic Hamiltonians:             0.452     0.452   0.2% |
  Communicate:                               0.000     0.000   0.0% |
  Hartree integrate/restrict:                1.268     1.268   0.5% |
  Poisson:                                  20.473     0.797   0.3% |
   Communicate from 1D:                      2.328     2.328   0.9% |
   Communicate from 2D:                      2.301     2.301   0.9% |
   Communicate to 1D:                        2.248     2.248   0.9% |
   Communicate to 2D:                        2.251     2.251   0.9% |
   FFT 1D:                                   3.125     3.125   1.2% |
   FFT 2D:                                   7.423     7.423   2.9% ||
  XC 3D grid:                               43.310    43.310  17.0% |------|
  vbar:                                      0.258     0.258   0.1% |
 Orthonormalize:                             0.285     0.000   0.0% |
  calc_s_matrix:                             0.076     0.076   0.0% |
  inverse-cholesky:                          0.000     0.000   0.0% |
  projections:                               0.076     0.076   0.0% |
  rotate_psi_s:                              0.132     0.132   0.1% |
Set symmetry:                                0.000     0.000   0.0% |
Other:                                       3.823     3.823   1.5% ||
-------------------------------------------------------------------
Total:                                               255.448 100.0%

Memory usage: 3.10 GiB
Date: Sun Feb 16 17:55:44 2025
