
  ___ ___ ___ _ _ _  
 |   |   |_  | | | | 
 | | | | | . | | | | 
 |__ |  _|___|_____|  24.1.0
 |___|_|             

User:   husi@vera-r02-05
Date:   Wed Feb 26 16:29:41 2025
Arch:   x86_64
Pid:    3490180
CWD:    /cephyr/users/husi/Vera/A3
Python: 3.11.3
gpaw:   /apps/Arch/software/GPAW/24.1.0-foss-2023a/lib/python3.11/site-packages/gpaw
_gpaw:  /apps/Arch/software/GPAW/24.1.0-foss-2023a/lib/python3.11/site-packages/
        _gpaw.cpython-311-x86_64-linux-gnu.so
ase:    /apps/Arch/software/ASE/3.22.1-gfbf-2023a/lib/python3.11/site-packages/ase (version 3.22.1)
numpy:  /apps/Arch/software/SciPy-bundle/2023.07-gfbf-2023a/lib/python3.11/site-packages/numpy (version 1.25.1)
scipy:  /apps/Arch/software/SciPy-bundle/2023.07-gfbf-2023a/lib/python3.11/site-packages/scipy (version 1.11.1)
libxc:  6.2.2
units:  Angstrom and eV
cores: 1
OpenMP: False
OMP_NUM_THREADS: 1

Input parameters:
  kpts: [8 8 1]
  mode: {ecut: 500.0,
         name: pw}
  occupations: {fixmagmom: False,
                name: fermi-dirac,
                width: 0.01}
  xc: PBE

System changes: positions, numbers, cell, pbc, initial_charges, initial_magmoms 

Initialize ...

species:
  Na:
    name: Sodium
    id: d7ecbc49209718622bcbe287195dca2a
    Z: 11.0
    valence: 7
    core: 4
    charge: 0.0
    file: /apps/Common/software/GPAW-setups/24.1.0/Na.PBE.gz
    compensation charges: {type: gauss,
                           rc: 0.37,
                           lmax: 2}
    cutoffs: {filter: 2.17,
              core: 2.59}
    valence states:
      #              energy  rcut
      - 3s(1.00)    -2.744   1.201
      - 2p(6.00)   -28.672   1.217
      - 3p(0.00)    -0.743   1.217
      -  s          24.468   1.201
      -  d           0.000   1.238
  
    # Using partial waves for Na as LCAO basis

Reference energy: -13255.831493  # eV

Spin-paired calculation

Convergence criteria:
 Maximum [total energy] change in last 3 cyles: 0.0005 eV / valence electron
 Maximum integral of absolute [dens]ity change: 0.0001 electrons / valence electron
 Maximum integral of absolute [eigenst]ate change: 4e-08 eV^2 / valence electron
 Maximum number of scf [iter]ations: 333
 (Square brackets indicate name in SCF output, whereas a 'c' in
 the SCF output indicates the quantity has converged.)

Symmetries present (total): 8

  ( 1  0  0)  ( 1  0  0)  ( 0  1  0)  ( 0  1  0)  ( 0 -1  0)  ( 0 -1  0)
  ( 0  1  0)  ( 0  1  0)  ( 1  0  0)  ( 1  0  0)  (-1  0  0)  (-1  0  0)
  ( 0  0  1)  ( 0  0 -1)  ( 0  0  1)  ( 0  0 -1)  ( 0  0  1)  ( 0  0 -1)

  (-1  0  0)  (-1  0  0)
  ( 0 -1  0)  ( 0 -1  0)
  ( 0  0  1)  ( 0  0 -1)

64 k-points: 8 x 8 x 1 Monkhorst-Pack grid
20 k-points in the irreducible part of the Brillouin zone
       k-points in crystal coordinates                weights
   0:     0.06250000   -0.06250000    0.00000000          2/64
   1:     0.06250000    0.06250000    0.00000000          2/64
   2:     0.18750000   -0.18750000    0.00000000          2/64
   3:     0.18750000   -0.06250000    0.00000000          4/64
   4:     0.18750000    0.06250000    0.00000000          4/64
   5:     0.18750000    0.18750000    0.00000000          2/64
   6:     0.31250000   -0.31250000    0.00000000          2/64
   7:     0.31250000   -0.18750000    0.00000000          4/64
   8:     0.31250000   -0.06250000    0.00000000          4/64
   9:     0.31250000    0.06250000    0.00000000          4/64
          ...
  19:     0.43750000    0.43750000    0.00000000          2/64

Wave functions: Plane wave expansion
  Cutoff energy: 500.000 eV
  Number of coefficients (min, max): 4992, 5069
  Pulay-stress correction: 0.000000 eV/Ang^3 (de/decut=0.000000)
  Using FFTW library
  ScaLapack parameters: grid=1x1, blocksize=None
  Wavefunction extrapolation:
    Improved wavefunction reuse through dual PAW basis 

Occupation numbers: Fermi-Dirac:
  width: 0.0100  # eV
 

Eigensolver
   Davidson(niter=2) 

Densities:
  Coarse grid: 20*20*84 grid
  Fine grid: 40*40*168 grid
  Total Charge: 0.000000 

Density mixing:
  Method: separate
  Backend: pulay
  Linear mixing parameter: 0.05
  old densities: 5
  Damping of long wavelength oscillations: 50 

Hamiltonian:
  XC and Coulomb potentials evaluated on a 40*40*168 grid
  Using the PBE Exchange-Correlation functional
  External potential:
    NoExternalPotential
 

XC parameters: PBE with 2 nearest neighbor stencil

Memory estimate:
  Process memory now: 289.88 MiB
  Calculator: 60.83 MiB
    Density: 14.55 MiB
      Arrays: 6.67 MiB
      Localized functions: 5.32 MiB
      Mixer: 2.56 MiB
    Hamiltonian: 4.47 MiB
      Arrays: 4.36 MiB
      XC: 0.00 MiB
      Poisson: 0.00 MiB
      vbar: 0.11 MiB
    Wavefunctions: 41.81 MiB
      Arrays psit_nG: 26.30 MiB
      Eigensolver: 1.75 MiB
      Projections: 0.20 MiB
      Projectors: 10.74 MiB
      PW-descriptor: 2.83 MiB

Total number of cores used: 1

Number of atoms: 3
Number of atomic orbitals: 21
Number of bands in calculation: 17
Number of valence electrons: 21
Bands to converge: occupied

... initialized

Initializing position-dependent things.

Density initialized from atomic densities
Creating initial wave functions:
  17 bands from LCAO basis set

                     
                     
                     
                     
                     
       Na            
                     
            Na       
                     
                     
                     
                     
       Na            
                     
                     
                     
                     

Positions:
   0 Na     0.000000    0.000000    5.000000    ( 0.0000,  0.0000,  0.0000)
   1 Na     1.210473    1.711867    7.965040    ( 0.0000,  0.0000,  0.0000)
   2 Na    -0.000000    0.000000   10.930080    ( 0.0000,  0.0000,  0.0000)

Unit cell:
           periodic     x           y           z      points  spacing
  1. axis:    yes    3.631418    0.000000    0.000000    20     0.1712
  2. axis:    yes   -1.210473    3.423733    0.000000    20     0.1712
  3. axis:    no     0.000000   -0.000000   15.930080    84     0.1896

  Lengths:   3.631418   3.631418  15.930080
  Angles:   90.000000  90.000000 109.471221

Effective grid spacing dv^(1/3) = 0.1806

     iter     time        total  log10-change:
                         energy   eigst   dens
iter:   1 16:29:44    -3.677968
iter:   2 16:29:44    -3.677248   -1.37  -1.58
iter:   3 16:29:45    -3.662831   -2.00  -1.62
iter:   4 16:29:46    -3.661829   -2.67  -1.83
iter:   5 16:29:47    -3.658013c  -2.74  -1.89
iter:   6 16:29:48    -3.656164c  -3.65  -2.67
iter:   7 16:29:48    -3.653941c  -3.52  -2.81
iter:   8 16:29:49    -3.653911c  -4.67  -3.40
iter:   9 16:29:50    -3.653919c  -5.30  -3.52
iter:  10 16:29:51    -3.653922c  -5.20  -3.47
iter:  11 16:29:51    -3.653916c  -5.95  -4.13c
iter:  12 16:29:52    -3.653916c  -6.59  -4.50c
iter:  13 16:29:53    -3.653916c  -7.20  -4.43c
iter:  14 16:29:54    -3.653916c  -7.81c -4.51c

Converged after 14 iterations.

Dipole moment: (0.000000, -0.000000, 0.000000) |e|*Ang

Energy contributions relative to reference atoms: (reference = -13255.831493)

Kinetic:         +3.252781
Potential:       -2.964853
External:        +0.000000
XC:              -3.845902
Entropy (-ST):   -0.001412
Local:           -0.095235
SIC:             +0.000000
--------------------------
Free energy:     -3.654622
Extrapolated:    -3.653916

Showing only first 2 kpts
 Kpt  Band  Eigenvalues  Occupancy
  0     8    -25.95567    2.00000
  0     9     -4.00035    2.00000
  0    10     -3.10895    2.00000
  0    11     -1.67196    2.00000

  1     8    -25.95559    2.00000
  1     9     -3.93159    2.00000
  1    10     -3.04094    2.00000
  1    11     -1.60498    2.00000


Fermi level: -0.98990

No gap

Forces in eV/Ang:
  0 Na   -0.00000    0.00000   -0.01844
  1 Na    0.00000    0.00000    0.00000
  2 Na   -0.00000    0.00000    0.01844

System changes: positions 

Initializing position-dependent things.

Density initialized from wave functions
                     
                     
                     
                     
                     
       Na            
                     
            Na       
                     
                     
                     
                     
       Na            
                     
                     
                     
                     

Positions:
   0 Na    -0.000000    0.000000    4.999737    ( 0.0000,  0.0000,  0.0000)
   1 Na     1.210473    1.711867    7.965040    ( 0.0000,  0.0000,  0.0000)
   2 Na    -0.000000    0.000000   10.930344    ( 0.0000,  0.0000,  0.0000)

Unit cell:
           periodic     x           y           z      points  spacing
  1. axis:    yes    3.631418    0.000000    0.000000    20     0.1712
  2. axis:    yes   -1.210473    3.423733    0.000000    20     0.1712
  3. axis:    no     0.000000   -0.000000   15.930080    84     0.1896

  Lengths:   3.631418   3.631418  15.930080
  Angles:   90.000000  90.000000 109.471221

Effective grid spacing dv^(1/3) = 0.1806

     iter     time        total  log10-change:
                         energy   eigst   dens
iter:   1 16:29:55    -3.653928   -6.73
iter:   2 16:29:55    -3.653927   -7.78c -3.90
iter:   3 16:29:56    -3.653925c  -7.81c -4.02c

Converged after 3 iterations.

Dipole moment: (0.000000, -0.000000, -0.000000) |e|*Ang

Energy contributions relative to reference atoms: (reference = -13255.831493)

Kinetic:         +3.239130
Potential:       -2.952689
External:        +0.000000
XC:              -3.844696
Entropy (-ST):   -0.001412
Local:           -0.094963
SIC:             +0.000000
--------------------------
Free energy:     -3.654631
Extrapolated:    -3.653925

Showing only first 2 kpts
 Kpt  Band  Eigenvalues  Occupancy
  0     8    -25.95605    2.00000
  0     9     -4.00001    2.00000
  0    10     -3.10866    2.00000
  0    11     -1.67206    2.00000

  1     8    -25.95597    2.00000
  1     9     -3.93126    2.00000
  1    10     -3.04066    2.00000
  1    11     -1.60507    2.00000


Fermi level: -0.98962

No gap

Forces in eV/Ang:
  0 Na   -0.00000   -0.00000   -0.01683
  1 Na   -0.00000    0.00000    0.00000
  2 Na   -0.00000    0.00000    0.01683

System changes: positions 

Initializing position-dependent things.

Density initialized from wave functions
                     
                     
                     
                     
                     
       Na            
                     
            Na       
                     
                     
                     
                     
       Na            
                     
                     
                     
                     

Positions:
   0 Na    -0.000000   -0.000000    4.996986    ( 0.0000,  0.0000,  0.0000)
   1 Na     1.210473    1.711867    7.965040    ( 0.0000,  0.0000,  0.0000)
   2 Na    -0.000000    0.000000   10.933095    ( 0.0000,  0.0000,  0.0000)

Unit cell:
           periodic     x           y           z      points  spacing
  1. axis:    yes    3.631418    0.000000    0.000000    20     0.1712
  2. axis:    yes   -1.210473    3.423733    0.000000    20     0.1712
  3. axis:    no     0.000000   -0.000000   15.930080    84     0.1896

  Lengths:   3.631418   3.631418  15.930080
  Angles:   90.000000  90.000000 109.471221

Effective grid spacing dv^(1/3) = 0.1806

     iter     time        total  log10-change:
                         energy   eigst   dens
iter:   1 16:29:57    -3.654241   -4.65
iter:   2 16:29:58    -3.654145   -5.67  -2.95
iter:   3 16:29:59    -3.654016c  -5.87  -3.07
iter:   4 16:30:00    -3.654016c  -6.72  -4.16c
iter:   5 16:30:00    -3.654016c  -7.08  -4.22c
iter:   6 16:30:01    -3.654016c  -7.64c -4.86c

Converged after 6 iterations.

Dipole moment: (0.000000, -0.000000, -0.000000) |e|*Ang

Energy contributions relative to reference atoms: (reference = -13255.831493)

Kinetic:         +3.208792
Potential:       -2.927901
External:        +0.000000
XC:              -3.838859
Entropy (-ST):   -0.001412
Local:           -0.095342
SIC:             +0.000000
--------------------------
Free energy:     -3.654722
Extrapolated:    -3.654016

Showing only first 2 kpts
 Kpt  Band  Eigenvalues  Occupancy
  0     8    -25.95637    2.00000
  0     9     -3.99793    2.00000
  0    10     -3.10843    2.00000
  0    11     -1.67354    2.00000

  1     8    -25.95629    2.00000
  1     9     -3.92917    2.00000
  1    10     -3.04043    2.00000
  1    11     -1.60655    2.00000


Fermi level: -0.98933

No gap

Forces in eV/Ang:
  0 Na   -0.00000    0.00000   -0.01604
  1 Na    0.00000    0.00000    0.00000
  2 Na    0.00000   -0.00000    0.01604

System changes: positions 

Initializing position-dependent things.

Density initialized from wave functions
                     
                     
                     
                     
                     
       Na            
                     
            Na       
                     
                     
                     
                     
       Na            
                     
                     
                     
                     

Positions:
   0 Na    -0.000000   -0.000000    4.940724    ( 0.0000,  0.0000,  0.0000)
   1 Na     1.210473    1.711867    7.965040    ( 0.0000,  0.0000,  0.0000)
   2 Na    -0.000000    0.000000   10.989356    ( 0.0000,  0.0000,  0.0000)

Unit cell:
           periodic     x           y           z      points  spacing
  1. axis:    yes    3.631418    0.000000    0.000000    20     0.1712
  2. axis:    yes   -1.210473    3.423733    0.000000    20     0.1712
  3. axis:    no     0.000000   -0.000000   15.930080    84     0.1896

  Lengths:   3.631418   3.631418  15.930080
  Angles:   90.000000  90.000000 109.471221

Effective grid spacing dv^(1/3) = 0.1806

     iter     time        total  log10-change:
                         energy   eigst   dens
iter:   1 16:30:02    -3.752503   -2.01
iter:   2 16:30:03    -3.707367   -3.02  -1.62
iter:   3 16:30:04    -3.655666   -3.38  -1.76
iter:   4 16:30:05    -3.654116   -3.95  -2.48
iter:   5 16:30:05    -3.656097c  -4.58  -2.84
iter:   6 16:30:06    -3.654212c  -4.57  -2.47
iter:   7 16:30:07    -3.654148c  -5.56  -3.19
iter:   8 16:30:08    -3.654136c  -5.89  -3.90
iter:   9 16:30:08    -3.654134c  -6.63  -4.11c
iter:  10 16:30:09    -3.654134c  -7.15  -4.41c
iter:  11 16:30:10    -3.654135c  -7.55c -4.39c

Converged after 11 iterations.

Dipole moment: (0.000000, -0.000000, 0.000000) |e|*Ang

Energy contributions relative to reference atoms: (reference = -13255.831493)

Kinetic:         +3.010105
Potential:       -2.792673
External:        +0.000000
XC:              -3.775439
Entropy (-ST):   -0.001412
Local:           -0.095422
SIC:             +0.000000
--------------------------
Free energy:     -3.654840
Extrapolated:    -3.654135

Showing only first 2 kpts
 Kpt  Band  Eigenvalues  Occupancy
  0     8    -25.95026    2.00000
  0     9     -3.95030    2.00000
  0    10     -3.09728    2.00000
  0    11     -1.70035    2.00000

  1     8    -25.95018    2.00000
  1     9     -3.88158    2.00000
  1    10     -3.02925    2.00000
  1    11     -1.63326    2.00000


Fermi level: -0.97683

No gap

Forces in eV/Ang:
  0 Na    0.00000   -0.00000    0.01312
  1 Na    0.00000    0.00000    0.00000
  2 Na    0.00000   -0.00000   -0.01312

System changes: positions 

Initializing position-dependent things.

Density initialized from wave functions
                     
                     
                     
                     
                     
       Na            
                     
            Na       
                     
                     
                     
                     
       Na            
                     
                     
                     
                     

Positions:
   0 Na    -0.000000    0.000000    4.966032    ( 0.0000,  0.0000,  0.0000)
   1 Na     1.210473    1.711867    7.965040    ( 0.0000,  0.0000,  0.0000)
   2 Na    -0.000000    0.000000   10.964048    ( 0.0000,  0.0000,  0.0000)

Unit cell:
           periodic     x           y           z      points  spacing
  1. axis:    yes    3.631418    0.000000    0.000000    20     0.1712
  2. axis:    yes   -1.210473    3.423733    0.000000    20     0.1712
  3. axis:    no     0.000000   -0.000000   15.930080    84     0.1896

  Lengths:   3.631418   3.631418  15.930080
  Angles:   90.000000  90.000000 109.471221

Effective grid spacing dv^(1/3) = 0.1806

     iter     time        total  log10-change:
                         energy   eigst   dens
iter:   1 16:30:11    -3.673563   -2.73
iter:   2 16:30:12    -3.664895   -3.74  -1.97
iter:   3 16:30:13    -3.654489   -3.99  -2.10
iter:   4 16:30:13    -3.654494c  -4.74  -3.21
iter:   5 16:30:14    -3.654498c  -5.21  -3.20
iter:   6 16:30:15    -3.654495c  -5.82  -3.62
iter:   7 16:30:16    -3.654489c  -6.17  -3.92
iter:   8 16:30:16    -3.654488c  -7.04  -4.12c
iter:   9 16:30:17    -3.654488c  -7.51c -4.74c

Converged after 9 iterations.

Dipole moment: (0.000000, -0.000000, -0.000000) |e|*Ang

Energy contributions relative to reference atoms: (reference = -13255.831493)

Kinetic:         +3.099583
Potential:       -2.854029
External:        +0.000000
XC:              -3.804350
Entropy (-ST):   -0.001412
Local:           -0.094986
SIC:             +0.000000
--------------------------
Free energy:     -3.655193
Extrapolated:    -3.654488

Showing only first 2 kpts
 Kpt  Band  Eigenvalues  Occupancy
  0     8    -25.95173    2.00000
  0     9     -3.97099    2.00000
  0    10     -3.10185    2.00000
  0    11     -1.68787    2.00000

  1     8    -25.95165    2.00000
  1     9     -3.90225    2.00000
  1    10     -3.03383    2.00000
  1    11     -1.62083    2.00000


Fermi level: -0.98199

No gap

Forces in eV/Ang:
  0 Na    0.00000    0.00000    0.00029
  1 Na    0.00000   -0.00000    0.00000
  2 Na    0.00000    0.00000   -0.00029

Timing:                                      incl.     excl.
-------------------------------------------------------------------
Density initialized from wave functions:     0.189     0.176   0.5% |
 Symmetrize density:                         0.012     0.012   0.0% |
Forces:                                      0.438     0.438   1.2% |
Hamiltonian:                                 0.496     0.001   0.0% |
 Atomic:                                     0.291     0.002   0.0% |
  XC Correction:                             0.290     0.290   0.8% |
 Calculate atomic Hamiltonians:              0.013     0.013   0.0% |
 Communicate:                                0.000     0.000   0.0% |
 Initialize Hamiltonian:                     0.000     0.000   0.0% |
 Poisson:                                    0.002     0.002   0.0% |
 XC 3D grid:                                 0.189     0.189   0.5% |
LCAO initialization:                         0.502     0.008   0.0% |
 LCAO eigensolver:                           0.059     0.000   0.0% |
  Calculate projections:                     0.001     0.001   0.0% |
  DenseAtomicCorrection:                     0.001     0.001   0.0% |
  Distribute overlap matrix:                 0.000     0.000   0.0% |
  Orbital Layouts:                           0.006     0.006   0.0% |
  Potential matrix:                          0.049     0.049   0.1% |
  Sum over cells:                            0.002     0.002   0.0% |
 LCAO to grid:                               0.397     0.397   1.1% |
 Set positions (LCAO WFS):                   0.038     0.006   0.0% |
  Basic WFS set positions:                   0.000     0.000   0.0% |
  Basis functions set positions:             0.000     0.000   0.0% |
  P tci:                                     0.017     0.017   0.0% |
  ST tci:                                    0.012     0.012   0.0% |
  mktci:                                     0.003     0.003   0.0% |
PWDescriptor:                                0.201     0.201   0.6% |
Redistribute:                                0.005     0.005   0.0% |
SCF-cycle:                                  32.797     0.148   0.4% |
 Davidson:                                  26.892     5.868  16.3% |------|
  Apply H:                                   3.256     3.140   8.7% |--|
   HMM T:                                    0.116     0.116   0.3% |
  Subspace diag:                             4.856     0.031   0.1% |
   calc_h_matrix:                            4.022     0.760   2.1% ||
    Apply H:                                 3.263     3.132   8.7% |--|
     HMM T:                                  0.131     0.131   0.4% |
   diagonalize:                              0.158     0.158   0.4% |
   rotate_psi:                               0.646     0.646   1.8% ||
  calc. matrices:                           10.599     4.100  11.4% |----|
   Apply H:                                  6.500     6.277  17.5% |------|
    HMM T:                                   0.222     0.222   0.6% |
  diagonalize:                               0.984     0.984   2.7% ||
  rotate_psi:                                1.327     1.327   3.7% ||
 Density:                                    1.823     0.000   0.0% |
  Atomic density matrices:                   0.042     0.042   0.1% |
  Mix:                                       0.185     0.185   0.5% |
  Multipole moments:                         0.002     0.002   0.0% |
  Pseudo density:                            1.593     1.476   4.1% |-|
   Symmetrize density:                       0.117     0.117   0.3% |
 Hamiltonian:                                3.709     0.010   0.0% |
  Atomic:                                    2.186     0.011   0.0% |
   XC Correction:                            2.174     2.174   6.0% |-|
  Calculate atomic Hamiltonians:             0.096     0.096   0.3% |
  Communicate:                               0.000     0.000   0.0% |
  Poisson:                                   0.011     0.011   0.0% |
  XC 3D grid:                                1.406     1.406   3.9% |-|
 Orthonormalize:                             0.226     0.003   0.0% |
  calc_s_matrix:                             0.046     0.046   0.1% |
  inverse-cholesky:                          0.024     0.024   0.1% |
  projections:                               0.114     0.114   0.3% |
  rotate_psi_s:                              0.039     0.039   0.1% |
Set symmetry:                                0.002     0.002   0.0% |
Other:                                       1.332     1.332   3.7% ||
-------------------------------------------------------------------
Total:                                                35.962 100.0%

Memory usage: 381.34 MiB
Date: Wed Feb 26 16:30:17 2025
