
  ___ ___ ___ _ _ _  
 |   |   |_  | | | | 
 | | | | | . | | | | 
 |__ |  _|___|_____|  24.1.0
 |___|_|             

User:   husi@vera-r02-05
Date:   Wed Feb 26 16:32:25 2025
Arch:   x86_64
Pid:    3490180
CWD:    /cephyr/users/husi/Vera/A3
Python: 3.11.3
gpaw:   /apps/Arch/software/GPAW/24.1.0-foss-2023a/lib/python3.11/site-packages/gpaw
_gpaw:  /apps/Arch/software/GPAW/24.1.0-foss-2023a/lib/python3.11/site-packages/
        _gpaw.cpython-311-x86_64-linux-gnu.so
ase:    /apps/Arch/software/ASE/3.22.1-gfbf-2023a/lib/python3.11/site-packages/ase (version 3.22.1)
numpy:  /apps/Arch/software/SciPy-bundle/2023.07-gfbf-2023a/lib/python3.11/site-packages/numpy (version 1.25.1)
scipy:  /apps/Arch/software/SciPy-bundle/2023.07-gfbf-2023a/lib/python3.11/site-packages/scipy (version 1.11.1)
libxc:  6.2.2
units:  Angstrom and eV
cores: 1
OpenMP: False
OMP_NUM_THREADS: 1

Input parameters:
  kpts: [8 8 1]
  mode: {ecut: 500.0,
         name: pw}
  occupations: {fixmagmom: False,
                name: fermi-dirac,
                width: 0.01}
  xc: PBE

System changes: positions, numbers, cell, pbc, initial_charges, initial_magmoms 

Initialize ...

species:
  Na:
    name: Sodium
    id: d7ecbc49209718622bcbe287195dca2a
    Z: 11.0
    valence: 7
    core: 4
    charge: 0.0
    file: /apps/Common/software/GPAW-setups/24.1.0/Na.PBE.gz
    compensation charges: {type: gauss,
                           rc: 0.37,
                           lmax: 2}
    cutoffs: {filter: 2.17,
              core: 2.59}
    valence states:
      #              energy  rcut
      - 3s(1.00)    -2.744   1.201
      - 2p(6.00)   -28.672   1.217
      - 3p(0.00)    -0.743   1.217
      -  s          24.468   1.201
      -  d           0.000   1.238
  
    # Using partial waves for Na as LCAO basis

Reference energy: -13255.831493  # eV

Spin-paired calculation

Convergence criteria:
 Maximum [total energy] change in last 3 cyles: 0.0005 eV / valence electron
 Maximum integral of absolute [dens]ity change: 0.0001 electrons / valence electron
 Maximum integral of absolute [eigenst]ate change: 4e-08 eV^2 / valence electron
 Maximum number of scf [iter]ations: 333
 (Square brackets indicate name in SCF output, whereas a 'c' in
 the SCF output indicates the quantity has converged.)

Symmetries present (total): 2

  ( 1  0  0)  (-1  0  0)
  ( 0  1  0)  ( 0  1  0)
  ( 0  0  1)  ( 0  0  1)

64 k-points: 8 x 8 x 1 Monkhorst-Pack grid
16 k-points in the irreducible part of the Brillouin zone
       k-points in crystal coordinates                weights
   0:     0.06250000    0.06250000    0.00000000          4/64
   1:     0.06250000    0.18750000    0.00000000          4/64
   2:     0.06250000    0.31250000    0.00000000          4/64
   3:     0.06250000    0.43750000    0.00000000          4/64
   4:     0.18750000    0.06250000    0.00000000          4/64
   5:     0.18750000    0.18750000    0.00000000          4/64
   6:     0.18750000    0.31250000    0.00000000          4/64
   7:     0.18750000    0.43750000    0.00000000          4/64
   8:     0.31250000    0.06250000    0.00000000          4/64
   9:     0.31250000    0.18750000    0.00000000          4/64
          ...
  15:     0.43750000    0.43750000    0.00000000          4/64

Wave functions: Plane wave expansion
  Cutoff energy: 500.000 eV
  Number of coefficients (min, max): 10579, 10647
  Pulay-stress correction: 0.000000 eV/Ang^3 (de/decut=0.000000)
  Using FFTW library
  ScaLapack parameters: grid=1x1, blocksize=None
  Wavefunction extrapolation:
    Improved wavefunction reuse through dual PAW basis 

Occupation numbers: Fermi-Dirac:
  width: 0.0100  # eV
 

Eigensolver
   Davidson(niter=2) 

Densities:
  Coarse grid: 32*20*105 grid
  Fine grid: 64*40*210 grid
  Total Charge: 0.000000 

Density mixing:
  Method: separate
  Backend: pulay
  Linear mixing parameter: 0.05
  old densities: 5
  Damping of long wavelength oscillations: 50 

Hamiltonian:
  XC and Coulomb potentials evaluated on a 64*40*210 grid
  Using the PBE Exchange-Correlation functional
  External potential:
    NoExternalPotential
 

XC parameters: PBE with 2 nearest neighbor stencil

Memory estimate:
  Process memory now: 426.12 MiB
  Calculator: 109.91 MiB
    Density: 29.68 MiB
      Arrays: 13.33 MiB
      Localized functions: 11.23 MiB
      Mixer: 5.13 MiB
    Hamiltonian: 8.95 MiB
      Arrays: 8.72 MiB
      XC: 0.00 MiB
      Poisson: 0.00 MiB
      vbar: 0.23 MiB
    Wavefunctions: 71.28 MiB
      Arrays psit_nG: 44.19 MiB
      Eigensolver: 3.62 MiB
      Projections: 0.16 MiB
      Projectors: 18.15 MiB
      PW-descriptor: 5.16 MiB

Total number of cores used: 1

Number of atoms: 3
Number of atomic orbitals: 21
Number of bands in calculation: 17
Number of valence electrons: 21
Bands to converge: occupied

... initialized

Initializing position-dependent things.

Density initialized from atomic densities
Creating initial wave functions:
  17 bands from LCAO basis set

   .--------------.  
  /|              |  
 * |              |  
 | |              |  
 | |              |  
 | |              |  
 | |              |  
 | |              |  
 | |              |  
 | |              |  
 | |              |  
 |Na              |  
 | |              |  
 | |     Na       |  
 | |              |  
 | |              |  
 Na|              |  
 | |              |  
 | |              |  
 | |              |  
 | |              |  
 | |              |  
 | |              |  
 | |              |  
 | .--------------.  
 |/              /   
 *--------------*    

Positions:
   0 Na     0.000000    0.000000    8.000000    ( 0.0000,  0.0000,  0.0000)
   1 Na     2.965040    1.210473    9.711867    ( 0.0000,  0.0000,  0.0000)
   2 Na     0.000000    2.420945   11.423733    ( 0.0000,  0.0000,  0.0000)

Unit cell:
           periodic     x           y           z      points  spacing
  1. axis:    yes    5.930080    0.000000    0.000000    32     0.1853
  2. axis:    yes    0.000000    3.631418    0.000000    20     0.1816
  3. axis:    no     0.000000    0.000000   19.423733   105     0.1850

  Lengths:   5.930080   3.631418  19.423733
  Angles:   90.000000  90.000000  90.000000

Effective grid spacing dv^(1/3) = 0.1840

     iter     time        total  log10-change:
                         energy   eigst   dens
iter:   1 16:32:28    -3.317748
iter:   2 16:32:30    -3.320320   -1.21  -1.47
iter:   3 16:32:31    -3.307266   -1.62  -1.49
iter:   4 16:32:32    -3.292225   -2.19  -1.71
iter:   5 16:32:34    -3.283542   -2.46  -1.82
iter:   6 16:32:35    -3.284862c  -2.87  -2.32
iter:   7 16:32:36    -3.283824c  -3.29  -2.73
iter:   8 16:32:37    -3.283414c  -3.64  -2.89
iter:   9 16:32:39    -3.283400c  -4.19  -3.30
iter:  10 16:32:40    -3.283402c  -4.63  -3.37
iter:  11 16:32:41    -3.283400c  -4.97  -3.38
iter:  12 16:32:42    -3.283414c  -5.15  -3.58
iter:  13 16:32:44    -3.283410c  -5.60  -3.96
iter:  14 16:32:45    -3.283409c  -6.03  -4.12c
iter:  15 16:32:46    -3.283410c  -6.45  -4.45c
iter:  16 16:32:47    -3.283411c  -6.88  -4.55c
iter:  17 16:32:49    -3.283411c  -7.30  -4.73c
iter:  18 16:32:50    -3.283411c  -7.69c -4.80c

Converged after 18 iterations.

Dipole moment: (-0.000000, 0.015408, 0.000003) |e|*Ang

Energy contributions relative to reference atoms: (reference = -13255.831493)

Kinetic:         +2.114280
Potential:       -2.074827
External:        +0.000000
XC:              -3.227527
Entropy (-ST):   -0.000936
Local:           -0.094869
SIC:             +0.000000
--------------------------
Free energy:     -3.283879
Extrapolated:    -3.283411

Showing only first 2 kpts
 Kpt  Band  Eigenvalues  Occupancy
  0     8    -27.02785    2.00000
  0     9     -4.42966    2.00000
  0    10     -2.65187    2.00000
  0    11     -0.96741    0.00000

  1     8    -27.03372    2.00000
  1     9     -4.06501    2.00000
  1    10     -2.29433    2.00000
  1    11     -0.61958    0.00000


Fermi level: -1.96109

No gap

Forces in eV/Ang:
  0 Na    0.00000   -0.03383    0.03680
  1 Na    0.00000   -0.00005   -0.00002
  2 Na    0.00000    0.03387   -0.03682

System changes: positions 

Initializing position-dependent things.

Density initialized from wave functions
   .--------------.  
  /|              |  
 * |              |  
 | |              |  
 | |              |  
 | |              |  
 | |              |  
 | |              |  
 | |              |  
 | |              |  
 | |              |  
 |Na              |  
 | |              |  
 | |     Na       |  
 | Na             |  
 | |              |  
 | |              |  
 | |              |  
 | |              |  
 | |              |  
 | |              |  
 | |              |  
 | |              |  
 | |              |  
 | .--------------.  
 |/              /   
 *--------------*    

Positions:
   0 Na     0.000000   -0.000483    8.000526    ( 0.0000,  0.0000,  0.0000)
   1 Na     2.965040    1.210472    9.711866    ( 0.0000,  0.0000,  0.0000)
   2 Na     0.000000    2.421429   11.423207    ( 0.0000,  0.0000,  0.0000)

Unit cell:
           periodic     x           y           z      points  spacing
  1. axis:    yes    5.930080    0.000000    0.000000    32     0.1853
  2. axis:    yes    0.000000    3.631418    0.000000    20     0.1816
  3. axis:    no     0.000000    0.000000   19.423733   105     0.1850

  Lengths:   5.930080   3.631418  19.423733
  Angles:   90.000000  90.000000  90.000000

Effective grid spacing dv^(1/3) = 0.1840

     iter     time        total  log10-change:
                         energy   eigst   dens
iter:   1 16:32:52    -3.283483   -6.05
iter:   2 16:32:53    -3.283482   -6.91  -4.17c
iter:   3 16:32:54    -3.283476c  -7.38  -4.22c
iter:   4 16:32:56    -3.283477c  -7.93c -4.65c

Converged after 4 iterations.

Dipole moment: (-0.000000, 0.019511, 0.000008) |e|*Ang

Energy contributions relative to reference atoms: (reference = -13255.831493)

Kinetic:         +2.141802
Potential:       -2.098295
External:        +0.000000
XC:              -3.231298
Entropy (-ST):   -0.000946
Local:           -0.095212
SIC:             +0.000000
--------------------------
Free energy:     -3.283950
Extrapolated:    -3.283477

Showing only first 2 kpts
 Kpt  Band  Eigenvalues  Occupancy
  0     8    -27.02736    2.00000
  0     9     -4.42992    2.00000
  0    10     -2.65156    2.00000
  0    11     -0.96696    0.00000

  1     8    -27.03323    2.00000
  1     9     -4.06527    2.00000
  1    10     -2.29402    2.00000
  1    11     -0.61914    0.00000


Fermi level: -1.96093

No gap

Forces in eV/Ang:
  0 Na    0.00000   -0.03344    0.03617
  1 Na    0.00000   -0.00005   -0.00002
  2 Na    0.00000    0.03348   -0.03620

System changes: positions 

Initializing position-dependent things.

Density initialized from wave functions
   .--------------.  
  /|              |  
 * |              |  
 | |              |  
 | |              |  
 | |              |  
 | |              |  
 | |              |  
 | |              |  
 | |              |  
 | |              |  
 |Na              |  
 | |              |  
 | |     Na       |  
 | Na             |  
 | |              |  
 | |              |  
 | |              |  
 | |              |  
 | |              |  
 | |              |  
 | |              |  
 | |              |  
 | |              |  
 | .--------------.  
 |/              /   
 *--------------*    

Positions:
   0 Na     0.000000   -0.033586    8.036331    ( 0.0000,  0.0000,  0.0000)
   1 Na     2.965040    1.210425    9.711842    ( 0.0000,  0.0000,  0.0000)
   2 Na    -0.000000    2.454571   11.387370    ( 0.0000,  0.0000,  0.0000)

Unit cell:
           periodic     x           y           z      points  spacing
  1. axis:    yes    5.930080    0.000000    0.000000    32     0.1853
  2. axis:    yes    0.000000    3.631418    0.000000    20     0.1816
  3. axis:    no     0.000000    0.000000   19.423733   105     0.1850

  Lengths:   5.930080   3.631418  19.423733
  Angles:   90.000000  90.000000  90.000000

Effective grid spacing dv^(1/3) = 0.1840

     iter     time        total  log10-change:
                         energy   eigst   dens
iter:   1 16:32:57    -3.288877   -2.49
iter:   2 16:32:58    -3.288439   -3.52  -2.33
iter:   3 16:33:00    -3.286984c  -3.88  -2.38
iter:   4 16:33:01    -3.286830c  -4.56  -2.57
iter:   5 16:33:02    -3.286845c  -4.80  -2.80
iter:   6 16:33:04    -3.287178c  -4.90  -2.87
iter:   7 16:33:05    -3.286863c  -5.24  -2.88
iter:   8 16:33:06    -3.286895c  -5.84  -3.07
iter:   9 16:33:08    -3.286893c  -6.35  -4.33c
iter:  10 16:33:09    -3.286894c  -6.73  -4.38c
iter:  11 16:33:10    -3.286895c  -7.04  -4.45c
iter:  12 16:33:11    -3.286894c  -7.40c -4.57c

Converged after 12 iterations.

Dipole moment: (-0.000000, 0.288635, 0.000021) |e|*Ang

Energy contributions relative to reference atoms: (reference = -13255.831493)

Kinetic:         +2.331592
Potential:       -2.231027
External:        +0.000000
XC:              -3.292461
Entropy (-ST):   -0.001645
Local:           -0.094176
SIC:             +0.000000
--------------------------
Free energy:     -3.287716
Extrapolated:    -3.286894

Showing only first 2 kpts
 Kpt  Band  Eigenvalues  Occupancy
  0     8    -26.99368    2.00000
  0     9     -4.44453    2.00000
  0    10     -2.63291    2.00000
  0    11     -0.94092    0.00000

  1     8    -26.99965    2.00000
  1     9     -4.07979    2.00000
  1    10     -2.27560    2.00000
  1    11     -0.59351    0.00000


Fermi level: -1.95338

No gap

Forces in eV/Ang:
  0 Na    0.00000   -0.02627    0.01366
  1 Na    0.00000   -0.00004   -0.00005
  2 Na    0.00000    0.02628   -0.01376

System changes: positions 

Initializing position-dependent things.

Density initialized from wave functions
   .--------------.  
  /|              |  
 * |              |  
 | |              |  
 | |              |  
 | |              |  
 | |              |  
 | |              |  
 | |              |  
 | |              |  
 | |              |  
 |Na              |  
 | |              |  
 | |     Na       |  
 | Na             |  
 | |              |  
 | |              |  
 | |              |  
 | |              |  
 | |              |  
 | |              |  
 | |              |  
 | |              |  
 | |              |  
 | .--------------.  
 |/              /   
 *--------------*    

Positions:
   0 Na     0.000000   -0.077124    8.082939    ( 0.0000,  0.0000,  0.0000)
   1 Na     2.965040    1.210363    9.711808    ( 0.0000,  0.0000,  0.0000)
   2 Na     0.000000    2.498162   11.340716    ( 0.0000,  0.0000,  0.0000)

Unit cell:
           periodic     x           y           z      points  spacing
  1. axis:    yes    5.930080    0.000000    0.000000    32     0.1853
  2. axis:    yes    0.000000    3.631418    0.000000    20     0.1816
  3. axis:    no     0.000000    0.000000   19.423733   105     0.1850

  Lengths:   5.930080   3.631418  19.423733
  Angles:   90.000000  90.000000  90.000000

Effective grid spacing dv^(1/3) = 0.1840

     iter     time        total  log10-change:
                         energy   eigst   dens
iter:   1 16:33:13    -3.290536   -2.26
iter:   2 16:33:14    -3.289796   -3.28  -2.22
iter:   3 16:33:16    -3.288427c  -3.77  -2.29
iter:   4 16:33:17    -3.288633c  -4.34  -2.57
iter:   5 16:33:18    -3.288385c  -4.36  -2.55
iter:   6 16:33:20    -3.288401c  -4.91  -3.08
iter:   7 16:33:21    -3.288401c  -5.08  -3.03
iter:   8 16:33:22    -3.288383c  -5.55  -3.40
iter:   9 16:33:23    -3.288383c  -5.97  -4.07c
iter:  10 16:33:25    -3.288384c  -6.35  -4.07c
iter:  11 16:33:26    -3.288384c  -6.70  -4.09c
iter:  12 16:33:27    -3.288384c  -7.05  -4.09c
iter:  13 16:33:28    -3.288385c  -7.32  -4.08c
iter:  14 16:33:30    -3.288384c  -7.65c -4.11c

Converged after 14 iterations.

Dipole moment: (-0.000000, 0.634742, 0.000015) |e|*Ang

Energy contributions relative to reference atoms: (reference = -13255.831493)

Kinetic:         +2.677291
Potential:       -2.481107
External:        +0.000000
XC:              -3.389696
Entropy (-ST):   -0.002311
Local:           -0.093716
SIC:             +0.000000
--------------------------
Free energy:     -3.289540
Extrapolated:    -3.288384

Showing only first 2 kpts
 Kpt  Band  Eigenvalues  Occupancy
  0     8    -26.92319    2.00000
  0     9     -4.44579    2.00000
  0    10     -2.59968    2.00000
  0    11     -0.90118    0.00000

  1     8    -26.92932    2.00000
  1     9     -4.08092    2.00000
  1    10     -2.24267    2.00000
  1    11     -0.55426    0.00000


Fermi level: -1.93480

No gap

Forces in eV/Ang:
  0 Na    0.00000   -0.01594   -0.01255
  1 Na    0.00000   -0.00002   -0.00001
  2 Na    0.00000    0.01588    0.01247

System changes: positions 

Initializing position-dependent things.

Density initialized from wave functions
   .--------------.  
  /|              |  
 * |              |  
 | |              |  
 | |              |  
 | |              |  
 | |              |  
 | |              |  
 | |              |  
 | |              |  
 | |              |  
 |Na              |  
 | |              |  
 | |     Na       |  
 | Na             |  
 | |              |  
 | |              |  
 | |              |  
 | |              |  
 | |              |  
 | |              |  
 | |              |  
 | |              |  
 | |              |  
 | .--------------.  
 |/              /   
 *--------------*    

Positions:
   0 Na     0.000000   -0.080280    8.085881    ( 0.0000,  0.0000,  0.0000)
   1 Na     2.965040    1.210359    9.711806    ( 0.0000,  0.0000,  0.0000)
   2 Na     0.000000    2.501320   11.337770    ( 0.0000,  0.0000,  0.0000)

Unit cell:
           periodic     x           y           z      points  spacing
  1. axis:    yes    5.930080    0.000000    0.000000    32     0.1853
  2. axis:    yes    0.000000    3.631418    0.000000    20     0.1816
  3. axis:    no     0.000000    0.000000   19.423733   105     0.1850

  Lengths:   5.930080   3.631418  19.423733
  Angles:   90.000000  90.000000  90.000000

Effective grid spacing dv^(1/3) = 0.1840

     iter     time        total  log10-change:
                         energy   eigst   dens
iter:   1 16:33:31    -3.288388   -4.14
iter:   2 16:33:33    -3.288387   -4.90  -3.44
iter:   3 16:33:34    -3.288385c  -5.42  -3.53
iter:   4 16:33:35    -3.288384c  -5.89  -3.83
iter:   5 16:33:36    -3.288384c  -6.14  -3.89
iter:   6 16:33:38    -3.288384c  -6.64  -4.44c
iter:   7 16:33:39    -3.288384c  -7.03  -4.52c
iter:   8 16:33:40    -3.288384c  -7.44c -4.77c

Converged after 8 iterations.

Dipole moment: (-0.000000, 0.659668, 0.000028) |e|*Ang

Energy contributions relative to reference atoms: (reference = -13255.831493)

Kinetic:         +2.637563
Potential:       -2.442182
External:        +0.000000
XC:              -3.387792
Entropy (-ST):   -0.002325
Local:           -0.094811
SIC:             +0.000000
--------------------------
Free energy:     -3.289547
Extrapolated:    -3.288384

Showing only first 2 kpts
 Kpt  Band  Eigenvalues  Occupancy
  0     8    -26.92012    2.00000
  0     9     -4.44631    2.00000
  0    10     -2.59811    2.00000
  0    11     -0.89906    0.00000

  1     8    -26.92626    2.00000
  1     9     -4.08143    2.00000
  1    10     -2.24112    2.00000
  1    11     -0.55217    0.00000


Fermi level: -1.93427

No gap

Forces in eV/Ang:
  0 Na    0.00000   -0.01325   -0.01459
  1 Na    0.00000   -0.00002   -0.00006
  2 Na    0.00000    0.01319    0.01446

System changes: positions 

Initializing position-dependent things.

Density initialized from wave functions
   .--------------.  
  /|              |  
 * |              |  
 | |              |  
 | |              |  
 | |              |  
 | |              |  
 | |              |  
 | |              |  
 | |              |  
 | |              |  
 |Na              |  
 | |              |  
 | |     Na       |  
 | Na             |  
 | |              |  
 | |              |  
 | |              |  
 | |              |  
 | |              |  
 | |              |  
 | |              |  
 | |              |  
 | |              |  
 | .--------------.  
 |/              /   
 *--------------*    

Positions:
   0 Na     0.000000   -0.080354    8.085276    ( 0.0000,  0.0000,  0.0000)
   1 Na     2.965040    1.210359    9.711805    ( 0.0000,  0.0000,  0.0000)
   2 Na     0.000000    2.501393   11.338373    ( 0.0000,  0.0000,  0.0000)

Unit cell:
           periodic     x           y           z      points  spacing
  1. axis:    yes    5.930080    0.000000    0.000000    32     0.1853
  2. axis:    yes    0.000000    3.631418    0.000000    20     0.1816
  3. axis:    no     0.000000    0.000000   19.423733   105     0.1850

  Lengths:   5.930080   3.631418  19.423733
  Angles:   90.000000  90.000000  90.000000

Effective grid spacing dv^(1/3) = 0.1840

     iter     time        total  log10-change:
                         energy   eigst   dens
iter:   1 16:33:42    -3.288405   -6.55
iter:   2 16:33:43    -3.288404   -7.58c -4.05c
iter:   3 16:33:45    -3.288404c  -8.01c -4.16c

Converged after 3 iterations.

Dipole moment: (-0.000000, 0.660254, 0.000037) |e|*Ang

Energy contributions relative to reference atoms: (reference = -13255.831493)

Kinetic:         +2.619179
Potential:       -2.427200
External:        +0.000000
XC:              -3.385107
Entropy (-ST):   -0.002324
Local:           -0.094115
SIC:             +0.000000
--------------------------
Free energy:     -3.289566
Extrapolated:    -3.288404

Showing only first 2 kpts
 Kpt  Band  Eigenvalues  Occupancy
  0     8    -26.92100    2.00000
  0     9     -4.44649    2.00000
  0    10     -2.59871    2.00000
  0    11     -0.89971    0.00000

  1     8    -26.92714    2.00000
  1     9     -4.08161    2.00000
  1    10     -2.24171    2.00000
  1    11     -0.55282    0.00000


Fermi level: -1.93463

No gap

Forces in eV/Ang:
  0 Na    0.00000   -0.01335   -0.01417
  1 Na    0.00000   -0.00002   -0.00012
  2 Na    0.00000    0.01330    0.01395

System changes: positions 

Initializing position-dependent things.

Density initialized from wave functions
   .--------------.  
  /|              |  
 * |              |  
 | |              |  
 | |              |  
 | |              |  
 | |              |  
 | |              |  
 | |              |  
 | |              |  
 | |              |  
 |Na              |  
 | |              |  
 | |     Na       |  
 | Na             |  
 | |              |  
 | |              |  
 | |              |  
 | |              |  
 | |              |  
 | |              |  
 | |              |  
 | |              |  
 | |              |  
 | .--------------.  
 |/              /   
 *--------------*    

Positions:
   0 Na     0.000000   -0.098170    8.060482    ( 0.0000,  0.0000,  0.0000)
   1 Na     2.965040    1.210338    9.711716    ( 0.0000,  0.0000,  0.0000)
   2 Na     0.000000    2.519117   11.362955    ( 0.0000,  0.0000,  0.0000)

Unit cell:
           periodic     x           y           z      points  spacing
  1. axis:    yes    5.930080    0.000000    0.000000    32     0.1853
  2. axis:    yes    0.000000    3.631418    0.000000    20     0.1816
  3. axis:    no     0.000000    0.000000   19.423733   105     0.1850

  Lengths:   5.930080   3.631418  19.423733
  Angles:   90.000000  90.000000  90.000000

Effective grid spacing dv^(1/3) = 0.1840

     iter     time        total  log10-change:
                         energy   eigst   dens
iter:   1 16:33:46    -3.290046   -2.87
iter:   2 16:33:48    -3.289780   -3.90  -2.44
iter:   3 16:33:49    -3.289482c  -4.40  -2.54
iter:   4 16:33:50    -3.289463c  -4.94  -2.94
iter:   5 16:33:51    -3.289503c  -5.00  -2.96
iter:   6 16:33:53    -3.289524c  -5.45  -3.36
iter:   7 16:33:54    -3.289513c  -5.81  -3.56
iter:   8 16:33:55    -3.289511c  -6.28  -4.15c
iter:   9 16:33:56    -3.289511c  -6.68  -4.38c
iter:  10 16:33:58    -3.289511c  -7.08  -4.55c
iter:  11 16:33:59    -3.289511c  -7.43c -4.59c

Converged after 11 iterations.

Dipole moment: (-0.000000, 0.797597, 0.000005) |e|*Ang

Energy contributions relative to reference atoms: (reference = -13255.831493)

Kinetic:         +2.451785
Potential:       -2.310723
External:        +0.000000
XC:              -3.334075
Entropy (-ST):   -0.002082
Local:           -0.095457
SIC:             +0.000000
--------------------------
Free energy:     -3.290552
Extrapolated:    -3.289511

Showing only first 2 kpts
 Kpt  Band  Eigenvalues  Occupancy
  0     8    -26.95642    2.00000
  0     9     -4.44762    2.00000
  0    10     -2.61716    2.00000
  0    11     -0.92191    0.00000

  1     8    -26.96251    2.00000
  1     9     -4.08281    2.00000
  1    10     -2.25998    2.00000
  1    11     -0.57491    0.00000


Fermi level: -1.94522

No gap

Forces in eV/Ang:
  0 Na    0.00000   -0.01462   -0.00537
  1 Na    0.00000   -0.00002    0.00001
  2 Na    0.00000    0.01465    0.00532

System changes: positions 

Initializing position-dependent things.

Density initialized from wave functions
   .--------------.  
  /|              |  
 * |              |  
 | |              |  
 | |              |  
 | |              |  
 | |              |  
 | |              |  
 | |              |  
 | |              |  
 |Na              |  
 | |              |  
 | |              |  
 | |     Na       |  
 | Na             |  
 | |              |  
 | |              |  
 | |              |  
 | |              |  
 | |              |  
 | |              |  
 | |              |  
 | |              |  
 | |              |  
 | .--------------.  
 |/              /   
 *--------------*    

Positions:
   0 Na     0.000000   -0.156141    8.006598    ( 0.0000,  0.0000,  0.0000)
   1 Na     2.965040    1.210267    9.711499    ( 0.0000,  0.0000,  0.0000)
   2 Na     0.000000    2.576863   11.416301    ( 0.0000,  0.0000,  0.0000)

Unit cell:
           periodic     x           y           z      points  spacing
  1. axis:    yes    5.930080    0.000000    0.000000    32     0.1853
  2. axis:    yes    0.000000    3.631418    0.000000    20     0.1816
  3. axis:    no     0.000000    0.000000   19.423733   105     0.1850

  Lengths:   5.930080   3.631418  19.423733
  Angles:   90.000000  90.000000  90.000000

Effective grid spacing dv^(1/3) = 0.1840

     iter     time        total  log10-change:
                         energy   eigst   dens
iter:   1 16:34:01    -3.294843   -2.13
iter:   2 16:34:02    -3.293226   -3.18  -2.05
iter:   3 16:34:03    -3.291078c  -3.68  -2.15
iter:   4 16:34:04    -3.291197c  -4.10  -2.56
iter:   5 16:34:06    -3.291341c  -4.35  -2.69
iter:   6 16:34:07    -3.291558c  -4.55  -2.89
iter:   7 16:34:08    -3.291282c  -5.20  -2.51
iter:   8 16:34:10    -3.291164c  -5.48  -2.70
iter:   9 16:34:11    -3.291183c  -5.67  -3.03
iter:  10 16:34:12    -3.291192c  -6.24  -3.88
iter:  11 16:34:13    -3.291193c  -6.70  -4.21c
iter:  12 16:34:15    -3.291191c  -7.02  -4.22c
iter:  13 16:34:16    -3.291194c  -7.31  -4.41c
iter:  14 16:34:17    -3.291194c  -7.85c -4.87c

Converged after 14 iterations.

Dipole moment: (-0.000000, 1.213906, -0.000018) |e|*Ang

Energy contributions relative to reference atoms: (reference = -13255.831493)

Kinetic:         +2.181447
Potential:       -2.134094
External:        +0.000000
XC:              -3.243191
Entropy (-ST):   -0.001071
Local:           -0.094820
SIC:             +0.000000
--------------------------
Free energy:     -3.291730
Extrapolated:    -3.291194

Showing only first 2 kpts
 Kpt  Band  Eigenvalues  Occupancy
  0     8    -27.00906    2.00000
  0     9     -4.43288    2.00000
  0    10     -2.64811    2.00000
  0    11     -0.96413    0.00000

  1     8    -27.01297    2.00000
  1     9     -4.06822    2.00000
  1    10     -2.29054    2.00000
  1    11     -0.61690    0.00000


Fermi level: -1.96001

No gap

Forces in eV/Ang:
  0 Na    0.00000   -0.01462    0.01764
  1 Na    0.00000   -0.00004    0.00007
  2 Na    0.00000    0.01456   -0.01758

System changes: positions 

Initializing position-dependent things.

Density initialized from wave functions
   .--------------.  
  /|              |  
 * |              |  
 | |              |  
 | |              |  
 | |              |  
 | |              |  
 | |              |  
 | |              |  
 | |              |  
 |Na              |  
 | |              |  
 | |              |  
 | |     Na       |  
 | Na             |  
 | |              |  
 | |              |  
 | |              |  
 | |              |  
 | |              |  
 | |              |  
 | |              |  
 | |              |  
 | |              |  
 | .--------------.  
 |/              /   
 *--------------*    

Positions:
   0 Na     0.000000   -0.171752    8.010954    ( 0.0000,  0.0000,  0.0000)
   1 Na     2.965040    1.210246    9.711487    ( 0.0000,  0.0000,  0.0000)
   2 Na     0.000000    2.592459   11.411903    ( 0.0000,  0.0000,  0.0000)

Unit cell:
           periodic     x           y           z      points  spacing
  1. axis:    yes    5.930080    0.000000    0.000000    32     0.1853
  2. axis:    yes    0.000000    3.631418    0.000000    20     0.1816
  3. axis:    no     0.000000    0.000000   19.423733   105     0.1850

  Lengths:   5.930080   3.631418  19.423733
  Angles:   90.000000  90.000000  90.000000

Effective grid spacing dv^(1/3) = 0.1840

     iter     time        total  log10-change:
                         energy   eigst   dens
iter:   1 16:34:19    -3.291778   -3.75
iter:   2 16:34:20    -3.291769   -4.95  -3.16
iter:   3 16:34:21    -3.291706c  -5.44  -3.19
iter:   4 16:34:23    -3.291719c  -5.96  -3.43
iter:   5 16:34:24    -3.291724c  -5.95  -3.48
iter:   6 16:34:25    -3.291723c  -6.32  -3.97
iter:   7 16:34:27    -3.291722c  -6.66  -4.22c
iter:   8 16:34:28    -3.291721c  -6.95  -4.34c
iter:   9 16:34:29    -3.291721c  -7.33  -4.95c
iter:  10 16:34:30    -3.291721c  -7.67c -5.03c

Converged after 10 iterations.

Dipole moment: (-0.000000, 1.315706, 0.000008) |e|*Ang

Energy contributions relative to reference atoms: (reference = -13255.831493)

Kinetic:         +2.181753
Potential:       -2.130439
External:        +0.000000
XC:              -3.247760
Entropy (-ST):   -0.001156
Local:           -0.094697
SIC:             +0.000000
--------------------------
Free energy:     -3.292299
Extrapolated:    -3.291721

Showing only first 2 kpts
 Kpt  Band  Eigenvalues  Occupancy
  0     8    -27.00510    2.00000
  0     9     -4.43513    2.00000
  0    10     -2.64605    2.00000
  0    11     -0.96129    0.00000

  1     8    -27.00888    2.00000
  1     9     -4.07046    2.00000
  1    10     -2.28850    2.00000
  1    11     -0.61414    0.00000


Fermi level: -1.95941

No gap

Forces in eV/Ang:
  0 Na    0.00000   -0.01306    0.01286
  1 Na    0.00000   -0.00003   -0.00002
  2 Na    0.00000    0.01304   -0.01289

System changes: positions 

Initializing position-dependent things.

Density initialized from wave functions
   .--------------.  
  /|              |  
 * |              |  
 | |              |  
 | |              |  
 | |              |  
 | |              |  
 | |              |  
 | |              |  
 | |              |  
 | Na             |  
 | |              |  
 | |              |  
 | |     Na       |  
 | Na             |  
 | |              |  
 | |              |  
 | |              |  
 | |              |  
 | |              |  
 | |              |  
 | |              |  
 | |              |  
 | |              |  
 | .--------------.  
 |/              /   
 *--------------*    

Positions:
   0 Na     0.000000   -0.360185    8.004032    ( 0.0000,  0.0000,  0.0000)
   1 Na     2.965040    1.209999    9.711194    ( 0.0000,  0.0000,  0.0000)
   2 Na     0.000000    2.780570   11.417981    ( 0.0000,  0.0000,  0.0000)

Unit cell:
           periodic     x           y           z      points  spacing
  1. axis:    yes    5.930080    0.000000    0.000000    32     0.1853
  2. axis:    yes    0.000000    3.631418    0.000000    20     0.1816
  3. axis:    no     0.000000    0.000000   19.423733   105     0.1850

  Lengths:   5.930080   3.631418  19.423733
  Angles:   90.000000  90.000000  90.000000

Effective grid spacing dv^(1/3) = 0.1840

     iter     time        total  log10-change:
                         energy   eigst   dens
iter:   1 16:34:32    -3.291270   -1.90
iter:   2 16:34:33    -3.291853   -3.19  -2.26
iter:   3 16:34:35    -3.292806c  -3.70  -2.29
iter:   4 16:34:36    -3.294008c  -3.94  -2.43
iter:   5 16:34:37    -3.294443c  -4.15  -2.59
iter:   6 16:34:38    -3.294218c  -4.59  -2.93
iter:   7 16:34:40    -3.294227c  -4.93  -3.08
iter:   8 16:34:41    -3.294233c  -5.36  -3.04
iter:   9 16:34:42    -3.294253c  -5.71  -3.41
iter:  10 16:34:43    -3.294270c  -6.02  -3.87
iter:  11 16:34:45    -3.294263c  -6.40  -3.98
iter:  12 16:34:46    -3.294259c  -6.82  -4.09c
iter:  13 16:34:47    -3.294263c  -7.21  -4.28c
iter:  14 16:34:49    -3.294262c  -7.55c -4.74c

Converged after 14 iterations.

Dipole moment: (-0.000000, 2.156767, 0.000043) |e|*Ang

Energy contributions relative to reference atoms: (reference = -13255.831493)

Kinetic:         +2.152652
Potential:       -2.114253
External:        +0.000000
XC:              -3.237398
Entropy (-ST):   -0.001049
Local:           -0.094740
SIC:             +0.000000
--------------------------
Free energy:     -3.294787
Extrapolated:    -3.294262

Showing only first 2 kpts
 Kpt  Band  Eigenvalues  Occupancy
  0     8    -26.99655    2.00000
  0     9     -4.43127    2.00000
  0    10     -2.64867    2.00000
  0    11     -0.96784    0.00000

  1     8    -26.99737    2.00000
  1     9     -4.06662    2.00000
  1    10     -2.29099    2.00000
  1    11     -0.62118    0.00000


Fermi level: -1.96061

No gap

Forces in eV/Ang:
  0 Na    0.00000   -0.00133   -0.00293
  1 Na    0.00000   -0.00001   -0.00014
  2 Na    0.00000    0.00129    0.00280

Timing:                                      incl.     excl.
-------------------------------------------------------------------
Density initialized from wave functions:     0.723     0.709   0.5% |
 Symmetrize density:                         0.014     0.014   0.0% |
Forces:                                      1.475     1.475   1.0% |
Hamiltonian:                                 1.322     0.006   0.0% |
 Atomic:                                     0.576     0.003   0.0% |
  XC Correction:                             0.572     0.572   0.4% |
 Calculate atomic Hamiltonians:              0.052     0.052   0.0% |
 Communicate:                                0.000     0.000   0.0% |
 Initialize Hamiltonian:                     0.000     0.000   0.0% |
 Poisson:                                    0.006     0.006   0.0% |
 XC 3D grid:                                 0.683     0.683   0.5% |
LCAO initialization:                         0.666     0.007   0.0% |
 LCAO eigensolver:                           0.043     0.000   0.0% |
  Calculate projections:                     0.000     0.000   0.0% |
  DenseAtomicCorrection:                     0.001     0.001   0.0% |
  Distribute overlap matrix:                 0.000     0.000   0.0% |
  Orbital Layouts:                           0.005     0.005   0.0% |
  Potential matrix:                          0.035     0.035   0.0% |
  Sum over cells:                            0.001     0.001   0.0% |
 LCAO to grid:                               0.589     0.589   0.4% |
 Set positions (LCAO WFS):                   0.027     0.004   0.0% |
  Basic WFS set positions:                   0.000     0.000   0.0% |
  Basis functions set positions:             0.000     0.000   0.0% |
  P tci:                                     0.014     0.014   0.0% |
  ST tci:                                    0.007     0.007   0.0% |
  mktci:                                     0.002     0.002   0.0% |
PWDescriptor:                                0.203     0.203   0.1% |
Redistribute:                                0.010     0.010   0.0% |
SCF-cycle:                                 136.149     0.381   0.3% |
 Davidson:                                 114.084    24.616  17.2% |------|
  Apply H:                                  14.586    14.172   9.9% |---|
   HMM T:                                    0.414     0.414   0.3% |
  Subspace diag:                            20.984     0.093   0.1% |
   calc_h_matrix:                           17.742     3.124   2.2% ||
    Apply H:                                14.618    14.163   9.9% |---|
     HMM T:                                  0.454     0.454   0.3% |
   diagonalize:                              0.379     0.379   0.3% |
   rotate_psi:                               2.770     2.770   1.9% ||
  calc. matrices:                           46.001    16.732  11.7% |----|
   Apply H:                                 29.269    28.387  19.8% |-------|
    HMM T:                                   0.882     0.882   0.6% |
  diagonalize:                               2.215     2.215   1.5% ||
  rotate_psi:                                5.683     5.683   4.0% |-|
 Density:                                    7.995     0.001   0.0% |
  Atomic density matrices:                   0.088     0.088   0.1% |
  Mix:                                       0.930     0.930   0.6% |
  Multipole moments:                         0.006     0.006   0.0% |
  Pseudo density:                            6.970     6.813   4.7% |-|
   Symmetrize density:                       0.157     0.157   0.1% |
 Hamiltonian:                               12.968     0.050   0.0% |
  Atomic:                                    5.642     0.032   0.0% |
   XC Correction:                            5.610     5.610   3.9% |-|
  Calculate atomic Hamiltonians:             0.504     0.504   0.4% |
  Communicate:                               0.000     0.000   0.0% |
  Poisson:                                   0.059     0.059   0.0% |
  XC 3D grid:                                6.713     6.713   4.7% |-|
 Orthonormalize:                             0.721     0.008   0.0% |
  calc_s_matrix:                             0.145     0.145   0.1% |
  inverse-cholesky:                          0.042     0.042   0.0% |
  projections:                               0.386     0.386   0.3% |
  rotate_psi_s:                              0.139     0.139   0.1% |
Set symmetry:                                0.001     0.001   0.0% |
Other:                                       2.909     2.909   2.0% ||
-------------------------------------------------------------------
Total:                                               143.459 100.0%

Memory usage: 481.70 MiB
Date: Wed Feb 26 16:34:49 2025
