
  ___ ___ ___ _ _ _  
 |   |   |_  | | | | 
 | | | | | . | | | | 
 |__ |  _|___|_____|  25.1.0
 |___|_|             

User:   zoe@Zoes-MacBook-Air.local
Date:   Sun Feb 23 10:15:53 2025
Arch:   arm64
Pid:    9548
CWD:    /Users/zoe/Documents/GitHub/TIF320_Computitional_Materials_and_Molecular_Physics
Python: 3.12.2
gpaw:   /opt/anaconda3/envs/tif320env/lib/python3.12/site-packages/gpaw
_gpaw:  /opt/anaconda3/envs/tif320env/lib/python3.12/site-packages/
        _gpaw.cpython-312-darwin.so
ase:    /opt/anaconda3/envs/tif320env/lib/python3.12/site-packages/ase (version 3.24.0)
numpy:  /opt/anaconda3/envs/tif320env/lib/python3.12/site-packages/numpy (version 2.0.1)
scipy:  /opt/anaconda3/envs/tif320env/lib/python3.12/site-packages/scipy (version 1.15.1)
libxc:  7.0.0
units:  Angstrom and eV
cores: 1
OpenMP: False
OMP_NUM_THREADS: 1

Input parameters:
  kpts: [2 2 2]
  mode: {ecut: 450.00000000000006,
         name: pw}
  setups: {Na: 1}
  xc: PBE

System changes: positions, numbers, cell, pbc, initial_charges, initial_magmoms 

Initialize ...

species:
  Na:
    name: Sodium
    id: 8dbce52902f3add137ce7d12431c9cac
    Z: 11.0
    valence: 1
    core: 10
    charge: 0.0
    file: /opt/anaconda3/envs/tif320env/gpaw-setups/gpaw-setups-24.11.0/Na.1.PBE.gz
    compensation charges: {type: gauss,
                           rc: 0.43,
                           lmax: 2}
    cutoffs: {filter: 2.36,
              core: 3.60}
    projectors:
      #              energy  rcut
      - 3s(1.00)    -2.744   1.349
      - 3p(0.00)    -0.743   1.349
      -  s          24.468   1.349
  
    # Using partial waves for Na as LCAO basis

Reference energy: -4418.610496  # eV

Spin-paired calculation

Convergence criteria:
 Maximum [total energy] change in last 3 cyles: 0.0005 eV / valence electron
 Maximum integral of absolute [dens]ity change: 0.0001 electrons / valence electron
 Maximum integral of absolute [eigenst]ate change: 4e-08 eV^2 / valence electron
 Maximum number of scf [iter]ations: 333
 (Square brackets indicate name in SCF output, whereas a 'c' in
 the SCF output indicates the quantity has converged.)

Symmetries present (total): 48

  ( 1  1  1)  ( 1  1  1)  ( 1  1  1)  ( 1  1  1)  ( 1  1  1)  ( 1  1  1)
  ( 0  0 -1)  ( 0  0 -1)  ( 0 -1  0)  ( 0 -1  0)  (-1  0  0)  (-1  0  0)
  ( 0 -1  0)  (-1  0  0)  ( 0  0 -1)  (-1  0  0)  ( 0  0 -1)  ( 0 -1  0)

  ( 1  0  0)  ( 1  0  0)  ( 1  0  0)  ( 1  0  0)  ( 1  0  0)  ( 1  0  0)
  ( 0  1  0)  ( 0  1  0)  ( 0  0  1)  ( 0  0  1)  (-1 -1 -1)  (-1 -1 -1)
  ( 0  0  1)  (-1 -1 -1)  ( 0  1  0)  (-1 -1 -1)  ( 0  1  0)  ( 0  0  1)

  ( 0  1  0)  ( 0  1  0)  ( 0  1  0)  ( 0  1  0)  ( 0  1  0)  ( 0  1  0)
  ( 1  0  0)  ( 1  0  0)  ( 0  0  1)  ( 0  0  1)  (-1 -1 -1)  (-1 -1 -1)
  ( 0  0  1)  (-1 -1 -1)  ( 1  0  0)  (-1 -1 -1)  ( 1  0  0)  ( 0  0  1)

  ( 0  0  1)  ( 0  0  1)  ( 0  0  1)  ( 0  0  1)  ( 0  0  1)  ( 0  0  1)
  ( 1  0  0)  ( 1  0  0)  ( 0  1  0)  ( 0  1  0)  (-1 -1 -1)  (-1 -1 -1)
  ( 0  1  0)  (-1 -1 -1)  ( 1  0  0)  (-1 -1 -1)  ( 1  0  0)  ( 0  1  0)

  ( 0  0 -1)  ( 0  0 -1)  ( 0  0 -1)  ( 0  0 -1)  ( 0  0 -1)  ( 0  0 -1)
  ( 1  1  1)  ( 1  1  1)  ( 0 -1  0)  ( 0 -1  0)  (-1  0  0)  (-1  0  0)
  ( 0 -1  0)  (-1  0  0)  ( 1  1  1)  (-1  0  0)  ( 1  1  1)  ( 0 -1  0)

  ( 0 -1  0)  ( 0 -1  0)  ( 0 -1  0)  ( 0 -1  0)  ( 0 -1  0)  ( 0 -1  0)
  ( 1  1  1)  ( 1  1  1)  ( 0  0 -1)  ( 0  0 -1)  (-1  0  0)  (-1  0  0)
  ( 0  0 -1)  (-1  0  0)  ( 1  1  1)  (-1  0  0)  ( 1  1  1)  ( 0  0 -1)

  (-1  0  0)  (-1  0  0)  (-1  0  0)  (-1  0  0)  (-1  0  0)  (-1  0  0)
  ( 1  1  1)  ( 1  1  1)  ( 0  0 -1)  ( 0  0 -1)  ( 0 -1  0)  ( 0 -1  0)
  ( 0  0 -1)  ( 0 -1  0)  ( 1  1  1)  ( 0 -1  0)  ( 1  1  1)  ( 0  0 -1)

  (-1 -1 -1)  (-1 -1 -1)  (-1 -1 -1)  (-1 -1 -1)  (-1 -1 -1)  (-1 -1 -1)
  ( 1  0  0)  ( 1  0  0)  ( 0  1  0)  ( 0  1  0)  ( 0  0  1)  ( 0  0  1)
  ( 0  1  0)  ( 0  0  1)  ( 1  0  0)  ( 0  0  1)  ( 1  0  0)  ( 0  1  0)

8 k-points: 2 x 2 x 2 Monkhorst-Pack grid
2 k-points in the irreducible part of the Brillouin zone
       k-points in crystal coordinates                weights
   0:     0.25000000    0.25000000   -0.25000000          6/8
   1:     0.25000000    0.25000000    0.25000000          2/8

Wave functions: Plane wave expansion
  Cutoff energy: 450.000 eV
  Number of coefficients (min, max): 843, 868
  Pulay-stress correction: 0.000000 eV/Ang^3 (de/decut=0.000000)
  Using Numpy's FFT
  ScaLapack parameters: grid=1x1, blocksize=None
  Wavefunction extrapolation:
    Improved wavefunction reuse through dual PAW basis 

Occupation numbers: Fermi-Dirac:
  width: 0.1000  # eV
 

Eigensolver
   Davidson(niter=2) 

Densities:
  Coarse grid: 20*20*20 grid
  Fine grid: 40*40*40 grid
  Total Charge: 0.000000 

Density mixing:
  Method: separate
  Backend: pulay
  Linear mixing parameter: 0.05
  old densities: 5
  Damping of long wavelength oscillations: 50 

Hamiltonian:
  XC and Coulomb potentials evaluated on a 40*40*40 grid
  Using the PBE Exchange-Correlation functional
  External potential:
    NoExternalPotential
 

XC parameters: PBE with 2 nearest neighbor stencil

Memory estimate:
  Process memory now: 121.48 MiB
  Calculator: 4.81 MiB
    Density: 3.10 MiB
      Arrays: 1.59 MiB
      Localized functions: 0.91 MiB
      Mixer: 0.61 MiB
    Hamiltonian: 1.06 MiB
      Arrays: 1.04 MiB
      XC: 0.00 MiB
      Poisson: 0.00 MiB
      vbar: 0.02 MiB
    Wavefunctions: 0.65 MiB
      Arrays psit_nG: 0.11 MiB
      Eigensolver: 0.12 MiB
      Projections: 0.00 MiB
      Projectors: 0.09 MiB
      PW-descriptor: 0.33 MiB

Total number of cores used: 1

Number of atoms: 1
Number of atomic orbitals: 4
Number of bands in calculation: 4
Number of valence electrons: 1
Bands to converge: occupied

... initialized

Initializing position-dependent things.

Density initialized from atomic densities
Creating initial wave functions:
  4 bands from LCAO basis set

                
                
                
       Na       
                
                
                
                

Positions:
   0 Na     0.000000    0.000000    0.000000    ( 0.0000,  0.0000,  0.0000)

Unit cell:
           periodic     x           y           z      points  spacing
  1. axis:    yes   -2.145000    2.145000    2.145000    20     0.1517
  2. axis:    yes    2.145000   -2.145000    2.145000    20     0.1517
  3. axis:    yes    2.145000    2.145000   -2.145000    20     0.1517

  Lengths:   3.715249   3.715249   3.715249
  Angles:  109.471221 109.471221 109.471221

Effective grid spacing dv^(1/3) = 0.1702

     iter     time        total  log10-change:
                         energy   eigst   dens
iter:   1 10:15:53    -1.187228
iter:   2 10:15:53    -1.187119   -3.68  -0.85
iter:   3 10:15:53    -1.185792   -3.73  -0.87
iter:   4 10:15:53    -1.185649   -5.84  -1.59
iter:   5 10:15:53    -1.185651c  -8.13c -2.60
iter:   6 10:15:53    -1.185633c  -6.04  -2.72
iter:   7 10:15:53    -1.185633c  -7.92c -3.86
iter:   8 10:15:54    -1.185633c  -9.54c -3.83
iter:   9 10:15:54    -1.185633c  -8.91c -3.89
iter:  10 10:15:54    -1.185633c -10.69c -4.84c

Converged after 10 iterations.

Dipole moment: (-0.000000, -0.000000, 0.000000) |e|*Ang

Energy contributions relative to reference atoms: (reference = -4418.610496)

Kinetic:         +1.715348
Potential:       -1.442831
External:        +0.000000
XC:              -1.409418
Entropy (-ST):   -0.095477
Local:           -0.000994
SIC:             +0.000000
--------------------------
Free energy:     -1.233372
Extrapolated:    -1.185633

Showing all kpts
 Kpt  Band  Eigenvalues  Occupancy
  0     0     -1.13077    1.33333
  0     1      6.50769    0.00000

  1     0      2.62216    0.00000
  1     1      2.62216    0.00000


Fermi level: -1.06145

No gap
No difference between direct/indirect transitions
Timing:                              incl.     excl.
-----------------------------------------------------------
Hamiltonian:                         0.015     0.000   0.0% |
 Atomic:                             0.006     0.000   0.0% |
  XC Correction:                     0.006     0.006   1.8% ||
 Calculate atomic Hamiltonians:      0.000     0.000   0.1% |
 Communicate:                        0.000     0.000   0.0% |
 Initialize Hamiltonian:             0.000     0.000   0.0% |
 Poisson:                            0.000     0.000   0.0% |
 XC 3D grid:                         0.008     0.008   2.3% ||
LCAO initialization:                 0.026     0.002   0.7% |
 LCAO eigensolver:                   0.013     0.000   0.0% |
  Calculate projections:             0.000     0.000   0.0% |
  DenseAtomicCorrection:             0.000     0.000   0.0% |
  Distribute overlap matrix:         0.000     0.000   0.0% |
  Orbital Layouts:                   0.003     0.003   0.9% |
  Potential matrix:                  0.010     0.010   2.9% ||
  Sum over cells:                    0.000     0.000   0.0% |
 LCAO to grid:                       0.003     0.003   0.9% |
 Set positions (LCAO WFS):           0.007     0.002   0.5% |
  Basic WFS set positions:           0.000     0.000   0.1% |
  Basis functions set positions:     0.000     0.000   0.0% |
  P tci:                             0.001     0.001   0.4% |
  ST tci:                            0.001     0.001   0.4% |
  mktci:                             0.003     0.003   0.8% |
PWDescriptor:                        0.000     0.000   0.1% |
SCF-cycle:                           0.242     0.002   0.5% |
 Davidson:                           0.087     0.005   1.6% ||
  Apply H:                           0.014     0.014   4.3% |-|
   HMM T:                            0.000     0.000   0.1% |
  Subspace diag:                     0.019     0.000   0.1% |
   calc_h_matrix:                    0.016     0.001   0.4% |
    Apply H:                         0.015     0.014   4.3% |-|
     HMM T:                          0.000     0.000   0.1% |
   diagonalize:                      0.002     0.002   0.7% |
   rotate_psi:                       0.000     0.000   0.1% |
  calc. matrices:                    0.034     0.005   1.5% ||
   Apply H:                          0.029     0.028   8.5% |--|
    HMM T:                           0.000     0.000   0.1% |
  diagonalize:                       0.013     0.013   4.0% |-|
  rotate_psi:                        0.001     0.001   0.2% |
 Density:                            0.028     0.000   0.0% |
  Atomic density matrices:           0.001     0.001   0.4% |
  Mix:                               0.008     0.008   2.5% ||
  Multipole moments:                 0.000     0.000   0.0% |
  Pseudo density:                    0.018     0.007   2.0% ||
   Symmetrize density:               0.011     0.011   3.4% ||
 Hamiltonian:                        0.125     0.001   0.4% |
  Atomic:                            0.055     0.001   0.4% |
   XC Correction:                    0.054     0.054  16.1% |-----|
  Calculate atomic Hamiltonians:     0.002     0.002   0.6% |
  Communicate:                       0.000     0.000   0.0% |
  Poisson:                           0.000     0.000   0.1% |
  XC 3D grid:                        0.066     0.066  19.6% |-------|
 Orthonormalize:                     0.001     0.000   0.0% |
  calc_s_matrix:                     0.000     0.000   0.1% |
  inverse-cholesky:                  0.001     0.001   0.2% |
  projections:                       0.000     0.000   0.0% |
  rotate_psi_s:                      0.000     0.000   0.0% |
Set symmetry:                        0.002     0.002   0.7% |
Other:                               0.050     0.050  14.9% |-----|
-----------------------------------------------------------
Total:                                         0.335 100.0%

Memory usage: 144.30 MiB
Date: Sun Feb 23 10:15:54 2025
