
  ___ ___ ___ _ _ _  
 |   |   |_  | | | | 
 | | | | | . | | | | 
 |__ |  _|___|_____|  25.1.0
 |___|_|             

User:   zoe@Zoes-MacBook-Air.local
Date:   Sun Feb 23 10:16:02 2025
Arch:   arm64
Pid:    9548
CWD:    /Users/zoe/Documents/GitHub/TIF320_Computitional_Materials_and_Molecular_Physics
Python: 3.12.2
gpaw:   /opt/anaconda3/envs/tif320env/lib/python3.12/site-packages/gpaw
_gpaw:  /opt/anaconda3/envs/tif320env/lib/python3.12/site-packages/
        _gpaw.cpython-312-darwin.so
ase:    /opt/anaconda3/envs/tif320env/lib/python3.12/site-packages/ase (version 3.24.0)
numpy:  /opt/anaconda3/envs/tif320env/lib/python3.12/site-packages/numpy (version 2.0.1)
scipy:  /opt/anaconda3/envs/tif320env/lib/python3.12/site-packages/scipy (version 1.15.1)
libxc:  7.0.0
units:  Angstrom and eV
cores: 1
OpenMP: False
OMP_NUM_THREADS: 1

Input parameters:
  kpts: [6 6 6]
  mode: {ecut: 450.00000000000006,
         name: pw}
  setups: {Na: 1}
  xc: PBE

System changes: positions, numbers, cell, pbc, initial_charges, initial_magmoms 

Initialize ...

species:
  Na:
    name: Sodium
    id: 8dbce52902f3add137ce7d12431c9cac
    Z: 11.0
    valence: 1
    core: 10
    charge: 0.0
    file: /opt/anaconda3/envs/tif320env/gpaw-setups/gpaw-setups-24.11.0/Na.1.PBE.gz
    compensation charges: {type: gauss,
                           rc: 0.43,
                           lmax: 2}
    cutoffs: {filter: 2.36,
              core: 3.60}
    projectors:
      #              energy  rcut
      - 3s(1.00)    -2.744   1.349
      - 3p(0.00)    -0.743   1.349
      -  s          24.468   1.349
  
    # Using partial waves for Na as LCAO basis

Reference energy: -4418.610496  # eV

Spin-paired calculation

Convergence criteria:
 Maximum [total energy] change in last 3 cyles: 0.0005 eV / valence electron
 Maximum integral of absolute [dens]ity change: 0.0001 electrons / valence electron
 Maximum integral of absolute [eigenst]ate change: 4e-08 eV^2 / valence electron
 Maximum number of scf [iter]ations: 333
 (Square brackets indicate name in SCF output, whereas a 'c' in
 the SCF output indicates the quantity has converged.)

Symmetries present (total): 48

  ( 1  1  1)  ( 1  1  1)  ( 1  1  1)  ( 1  1  1)  ( 1  1  1)  ( 1  1  1)
  ( 0  0 -1)  ( 0  0 -1)  ( 0 -1  0)  ( 0 -1  0)  (-1  0  0)  (-1  0  0)
  ( 0 -1  0)  (-1  0  0)  ( 0  0 -1)  (-1  0  0)  ( 0  0 -1)  ( 0 -1  0)

  ( 1  0  0)  ( 1  0  0)  ( 1  0  0)  ( 1  0  0)  ( 1  0  0)  ( 1  0  0)
  ( 0  1  0)  ( 0  1  0)  ( 0  0  1)  ( 0  0  1)  (-1 -1 -1)  (-1 -1 -1)
  ( 0  0  1)  (-1 -1 -1)  ( 0  1  0)  (-1 -1 -1)  ( 0  1  0)  ( 0  0  1)

  ( 0  1  0)  ( 0  1  0)  ( 0  1  0)  ( 0  1  0)  ( 0  1  0)  ( 0  1  0)
  ( 1  0  0)  ( 1  0  0)  ( 0  0  1)  ( 0  0  1)  (-1 -1 -1)  (-1 -1 -1)
  ( 0  0  1)  (-1 -1 -1)  ( 1  0  0)  (-1 -1 -1)  ( 1  0  0)  ( 0  0  1)

  ( 0  0  1)  ( 0  0  1)  ( 0  0  1)  ( 0  0  1)  ( 0  0  1)  ( 0  0  1)
  ( 1  0  0)  ( 1  0  0)  ( 0  1  0)  ( 0  1  0)  (-1 -1 -1)  (-1 -1 -1)
  ( 0  1  0)  (-1 -1 -1)  ( 1  0  0)  (-1 -1 -1)  ( 1  0  0)  ( 0  1  0)

  ( 0  0 -1)  ( 0  0 -1)  ( 0  0 -1)  ( 0  0 -1)  ( 0  0 -1)  ( 0  0 -1)
  ( 1  1  1)  ( 1  1  1)  ( 0 -1  0)  ( 0 -1  0)  (-1  0  0)  (-1  0  0)
  ( 0 -1  0)  (-1  0  0)  ( 1  1  1)  (-1  0  0)  ( 1  1  1)  ( 0 -1  0)

  ( 0 -1  0)  ( 0 -1  0)  ( 0 -1  0)  ( 0 -1  0)  ( 0 -1  0)  ( 0 -1  0)
  ( 1  1  1)  ( 1  1  1)  ( 0  0 -1)  ( 0  0 -1)  (-1  0  0)  (-1  0  0)
  ( 0  0 -1)  (-1  0  0)  ( 1  1  1)  (-1  0  0)  ( 1  1  1)  ( 0  0 -1)

  (-1  0  0)  (-1  0  0)  (-1  0  0)  (-1  0  0)  (-1  0  0)  (-1  0  0)
  ( 1  1  1)  ( 1  1  1)  ( 0  0 -1)  ( 0  0 -1)  ( 0 -1  0)  ( 0 -1  0)
  ( 0  0 -1)  ( 0 -1  0)  ( 1  1  1)  ( 0 -1  0)  ( 1  1  1)  ( 0  0 -1)

  (-1 -1 -1)  (-1 -1 -1)  (-1 -1 -1)  (-1 -1 -1)  (-1 -1 -1)  (-1 -1 -1)
  ( 1  0  0)  ( 1  0  0)  ( 0  1  0)  ( 0  1  0)  ( 0  0  1)  ( 0  0  1)
  ( 0  1  0)  ( 0  0  1)  ( 1  0  0)  ( 0  0  1)  ( 1  0  0)  ( 0  1  0)

216 k-points: 6 x 6 x 6 Monkhorst-Pack grid
14 k-points in the irreducible part of the Brillouin zone
       k-points in crystal coordinates                weights
   0:     0.08333333    0.08333333   -0.08333333          6/216
   1:     0.25000000   -0.08333333   -0.08333333          8/216
   2:     0.25000000    0.08333333   -0.08333333         24/216
   3:     0.25000000    0.25000000   -0.25000000          6/216
   4:     0.25000000    0.25000000    0.25000000          2/216
   5:     0.41666667   -0.08333333   -0.08333333         24/216
   6:     0.41666667    0.08333333   -0.25000000         24/216
   7:     0.41666667    0.08333333   -0.08333333         24/216
   8:     0.41666667    0.25000000   -0.25000000         24/216
   9:     0.41666667    0.25000000    0.25000000         24/216
          ...
  13:     0.41666667    0.41666667    0.41666667          8/216

Wave functions: Plane wave expansion
  Cutoff energy: 450.000 eV
  Number of coefficients (min, max): 843, 883
  Pulay-stress correction: 0.000000 eV/Ang^3 (de/decut=0.000000)
  Using Numpy's FFT
  ScaLapack parameters: grid=1x1, blocksize=None
  Wavefunction extrapolation:
    Improved wavefunction reuse through dual PAW basis 

Occupation numbers: Fermi-Dirac:
  width: 0.1000  # eV
 

Eigensolver
   Davidson(niter=2) 

Densities:
  Coarse grid: 20*20*20 grid
  Fine grid: 40*40*40 grid
  Total Charge: 0.000000 

Density mixing:
  Method: separate
  Backend: pulay
  Linear mixing parameter: 0.05
  old densities: 5
  Damping of long wavelength oscillations: 50 

Hamiltonian:
  XC and Coulomb potentials evaluated on a 40*40*40 grid
  Using the PBE Exchange-Correlation functional
  External potential:
    NoExternalPotential
 

XC parameters: PBE with 2 nearest neighbor stencil

Memory estimate:
  Process memory now: 175.03 MiB
  Calculator: 6.18 MiB
    Density: 3.10 MiB
      Arrays: 1.59 MiB
      Localized functions: 0.91 MiB
      Mixer: 0.61 MiB
    Hamiltonian: 1.06 MiB
      Arrays: 1.04 MiB
      XC: 0.00 MiB
      Poisson: 0.00 MiB
      vbar: 0.02 MiB
    Wavefunctions: 2.02 MiB
      Arrays psit_nG: 0.75 MiB
      Eigensolver: 0.12 MiB
      Projections: 0.00 MiB
      Projectors: 0.64 MiB
      PW-descriptor: 0.49 MiB

Total number of cores used: 1

Number of atoms: 1
Number of atomic orbitals: 4
Number of bands in calculation: 4
Number of valence electrons: 1
Bands to converge: occupied

... initialized

Initializing position-dependent things.

Density initialized from atomic densities
Creating initial wave functions:
  4 bands from LCAO basis set

                
                
                
       Na       
                
                
                
                

Positions:
   0 Na     0.000000    0.000000    0.000000    ( 0.0000,  0.0000,  0.0000)

Unit cell:
           periodic     x           y           z      points  spacing
  1. axis:    yes   -2.145000    2.145000    2.145000    20     0.1517
  2. axis:    yes    2.145000   -2.145000    2.145000    20     0.1517
  3. axis:    yes    2.145000    2.145000   -2.145000    20     0.1517

  Lengths:   3.715249   3.715249   3.715249
  Angles:  109.471221 109.471221 109.471221

Effective grid spacing dv^(1/3) = 0.1702

     iter     time        total  log10-change:
                         energy   eigst   dens
iter:   1 10:16:02    -1.319761
iter:   2 10:16:02    -1.319655   -3.69  -0.85
iter:   3 10:16:02    -1.318196   -3.66  -0.87
iter:   4 10:16:02    -1.318087   -6.05  -1.68
iter:   5 10:16:02    -1.318088c  -7.91c -2.65
iter:   6 10:16:02    -1.318073c  -6.04  -2.68
iter:   7 10:16:02    -1.318073c  -7.86c -3.78
iter:   8 10:16:03    -1.318073c  -9.50c -3.68
iter:   9 10:16:03    -1.318073c  -8.82c -3.90
iter:  10 10:16:03    -1.318073c -10.43c -4.82c

Converged after 10 iterations.

Dipole moment: (-0.000000, 0.000000, 0.000000) |e|*Ang

Energy contributions relative to reference atoms: (reference = -4418.610496)

Kinetic:         +1.481283
Potential:       -1.391150
External:        +0.000000
XC:              -1.400031
Entropy (-ST):   -0.014973
Local:           -0.000687
SIC:             +0.000000
--------------------------
Free energy:     -1.325560
Extrapolated:    -1.318073

Showing only first 2 kpts
 Kpt  Band  Eigenvalues  Occupancy
  0     0     -2.96713    2.00000
  0     1      9.86446    0.00000

  1     0     -2.50413    2.00000
  1     1      7.83025    0.00000


Fermi level: -0.16121

No gap
No difference between direct/indirect transitions
Timing:                              incl.     excl.
-----------------------------------------------------------
Hamiltonian:                         0.015     0.000   0.0% |
 Atomic:                             0.006     0.000   0.0% |
  XC Correction:                     0.006     0.006   0.7% |
 Calculate atomic Hamiltonians:      0.000     0.000   0.0% |
 Communicate:                        0.000     0.000   0.0% |
 Initialize Hamiltonian:             0.000     0.000   0.0% |
 Poisson:                            0.000     0.000   0.0% |
 XC 3D grid:                         0.008     0.008   0.9% |
LCAO initialization:                 0.041     0.003   0.3% |
 LCAO eigensolver:                   0.013     0.000   0.0% |
  Calculate projections:             0.000     0.000   0.0% |
  DenseAtomicCorrection:             0.000     0.000   0.0% |
  Distribute overlap matrix:         0.000     0.000   0.0% |
  Orbital Layouts:                   0.002     0.002   0.2% |
  Potential matrix:                  0.010     0.010   1.1% |
  Sum over cells:                    0.001     0.001   0.1% |
 LCAO to grid:                       0.016     0.016   1.8% ||
 Set positions (LCAO WFS):           0.009     0.001   0.1% |
  Basic WFS set positions:           0.000     0.000   0.0% |
  Basis functions set positions:     0.000     0.000   0.0% |
  P tci:                             0.002     0.002   0.2% |
  ST tci:                            0.003     0.003   0.4% |
  mktci:                             0.002     0.002   0.2% |
PWDescriptor:                        0.002     0.002   0.2% |
SCF-cycle:                           0.836     0.006   0.6% |
 Davidson:                           0.621     0.037   4.0% |-|
  Apply H:                           0.110     0.108  11.7% |----|
   HMM T:                            0.001     0.001   0.1% |
  Subspace diag:                     0.136     0.002   0.2% |
   calc_h_matrix:                    0.119     0.007   0.8% |
    Apply H:                         0.112     0.111  11.9% |----|
     HMM T:                          0.001     0.001   0.2% |
   diagonalize:                      0.012     0.012   1.3% ||
   rotate_psi:                       0.003     0.003   0.3% |
  calc. matrices:                    0.250     0.035   3.8% |-|
   Apply H:                          0.215     0.213  22.9% |--------|
    HMM T:                           0.003     0.003   0.3% |
  diagonalize:                       0.083     0.083   8.9% |---|
  rotate_psi:                        0.005     0.005   0.5% |
 Density:                            0.076     0.000   0.0% |
  Atomic density matrices:           0.002     0.002   0.2% |
  Mix:                               0.009     0.009   1.0% |
  Multipole moments:                 0.000     0.000   0.0% |
  Pseudo density:                    0.064     0.052   5.6% |-|
   Symmetrize density:               0.012     0.012   1.3% ||
 Hamiltonian:                        0.132     0.001   0.1% |
  Atomic:                            0.059     0.001   0.1% |
   XC Correction:                    0.058     0.058   6.2% |-|
  Calculate atomic Hamiltonians:     0.002     0.002   0.3% |
  Communicate:                       0.000     0.000   0.0% |
  Poisson:                           0.000     0.000   0.1% |
  XC 3D grid:                        0.070     0.070   7.5% |--|
 Orthonormalize:                     0.001     0.000   0.0% |
  calc_s_matrix:                     0.001     0.001   0.1% |
  inverse-cholesky:                  0.000     0.000   0.0% |
  projections:                       0.000     0.000   0.0% |
  rotate_psi_s:                      0.000     0.000   0.0% |
Set symmetry:                        0.007     0.007   0.7% |
Other:                               0.027     0.027   3.0% ||
-----------------------------------------------------------
Total:                                         0.927 100.0%

Memory usage: 179.06 MiB
Date: Sun Feb 23 10:16:03 2025
