
  ___ ___ ___ _ _ _  
 |   |   |_  | | | | 
 | | | | | . | | | | 
 |__ |  _|___|_____|  25.1.0
 |___|_|             

User:   zoe@Zoes-MacBook-Air.local
Date:   Sun Feb 23 10:15:54 2025
Arch:   arm64
Pid:    9548
CWD:    /Users/zoe/Documents/GitHub/TIF320_Computitional_Materials_and_Molecular_Physics
Python: 3.12.2
gpaw:   /opt/anaconda3/envs/tif320env/lib/python3.12/site-packages/gpaw
_gpaw:  /opt/anaconda3/envs/tif320env/lib/python3.12/site-packages/
        _gpaw.cpython-312-darwin.so
ase:    /opt/anaconda3/envs/tif320env/lib/python3.12/site-packages/ase (version 3.24.0)
numpy:  /opt/anaconda3/envs/tif320env/lib/python3.12/site-packages/numpy (version 2.0.1)
scipy:  /opt/anaconda3/envs/tif320env/lib/python3.12/site-packages/scipy (version 1.15.1)
libxc:  7.0.0
units:  Angstrom and eV
cores: 1
OpenMP: False
OMP_NUM_THREADS: 1

Input parameters:
  kpts: [4 4 4]
  mode: {ecut: 450.00000000000006,
         name: pw}
  setups: {Na: 1}
  xc: PBE

System changes: positions, numbers, cell, pbc, initial_charges, initial_magmoms 

Initialize ...

species:
  Na:
    name: Sodium
    id: 8dbce52902f3add137ce7d12431c9cac
    Z: 11.0
    valence: 1
    core: 10
    charge: 0.0
    file: /opt/anaconda3/envs/tif320env/gpaw-setups/gpaw-setups-24.11.0/Na.1.PBE.gz
    compensation charges: {type: gauss,
                           rc: 0.43,
                           lmax: 2}
    cutoffs: {filter: 2.36,
              core: 3.60}
    projectors:
      #              energy  rcut
      - 3s(1.00)    -2.744   1.349
      - 3p(0.00)    -0.743   1.349
      -  s          24.468   1.349
  
    # Using partial waves for Na as LCAO basis

Reference energy: -4418.610496  # eV

Spin-paired calculation

Convergence criteria:
 Maximum [total energy] change in last 3 cyles: 0.0005 eV / valence electron
 Maximum integral of absolute [dens]ity change: 0.0001 electrons / valence electron
 Maximum integral of absolute [eigenst]ate change: 4e-08 eV^2 / valence electron
 Maximum number of scf [iter]ations: 333
 (Square brackets indicate name in SCF output, whereas a 'c' in
 the SCF output indicates the quantity has converged.)

Symmetries present (total): 48

  ( 1  1  1)  ( 1  1  1)  ( 1  1  1)  ( 1  1  1)  ( 1  1  1)  ( 1  1  1)
  ( 0  0 -1)  ( 0  0 -1)  ( 0 -1  0)  ( 0 -1  0)  (-1  0  0)  (-1  0  0)
  ( 0 -1  0)  (-1  0  0)  ( 0  0 -1)  (-1  0  0)  ( 0  0 -1)  ( 0 -1  0)

  ( 1  0  0)  ( 1  0  0)  ( 1  0  0)  ( 1  0  0)  ( 1  0  0)  ( 1  0  0)
  ( 0  1  0)  ( 0  1  0)  ( 0  0  1)  ( 0  0  1)  (-1 -1 -1)  (-1 -1 -1)
  ( 0  0  1)  (-1 -1 -1)  ( 0  1  0)  (-1 -1 -1)  ( 0  1  0)  ( 0  0  1)

  ( 0  1  0)  ( 0  1  0)  ( 0  1  0)  ( 0  1  0)  ( 0  1  0)  ( 0  1  0)
  ( 1  0  0)  ( 1  0  0)  ( 0  0  1)  ( 0  0  1)  (-1 -1 -1)  (-1 -1 -1)
  ( 0  0  1)  (-1 -1 -1)  ( 1  0  0)  (-1 -1 -1)  ( 1  0  0)  ( 0  0  1)

  ( 0  0  1)  ( 0  0  1)  ( 0  0  1)  ( 0  0  1)  ( 0  0  1)  ( 0  0  1)
  ( 1  0  0)  ( 1  0  0)  ( 0  1  0)  ( 0  1  0)  (-1 -1 -1)  (-1 -1 -1)
  ( 0  1  0)  (-1 -1 -1)  ( 1  0  0)  (-1 -1 -1)  ( 1  0  0)  ( 0  1  0)

  ( 0  0 -1)  ( 0  0 -1)  ( 0  0 -1)  ( 0  0 -1)  ( 0  0 -1)  ( 0  0 -1)
  ( 1  1  1)  ( 1  1  1)  ( 0 -1  0)  ( 0 -1  0)  (-1  0  0)  (-1  0  0)
  ( 0 -1  0)  (-1  0  0)  ( 1  1  1)  (-1  0  0)  ( 1  1  1)  ( 0 -1  0)

  ( 0 -1  0)  ( 0 -1  0)  ( 0 -1  0)  ( 0 -1  0)  ( 0 -1  0)  ( 0 -1  0)
  ( 1  1  1)  ( 1  1  1)  ( 0  0 -1)  ( 0  0 -1)  (-1  0  0)  (-1  0  0)
  ( 0  0 -1)  (-1  0  0)  ( 1  1  1)  (-1  0  0)  ( 1  1  1)  ( 0  0 -1)

  (-1  0  0)  (-1  0  0)  (-1  0  0)  (-1  0  0)  (-1  0  0)  (-1  0  0)
  ( 1  1  1)  ( 1  1  1)  ( 0  0 -1)  ( 0  0 -1)  ( 0 -1  0)  ( 0 -1  0)
  ( 0  0 -1)  ( 0 -1  0)  ( 1  1  1)  ( 0 -1  0)  ( 1  1  1)  ( 0  0 -1)

  (-1 -1 -1)  (-1 -1 -1)  (-1 -1 -1)  (-1 -1 -1)  (-1 -1 -1)  (-1 -1 -1)
  ( 1  0  0)  ( 1  0  0)  ( 0  1  0)  ( 0  1  0)  ( 0  0  1)  ( 0  0  1)
  ( 0  1  0)  ( 0  0  1)  ( 1  0  0)  ( 0  0  1)  ( 1  0  0)  ( 0  1  0)

64 k-points: 4 x 4 x 4 Monkhorst-Pack grid
6 k-points in the irreducible part of the Brillouin zone
       k-points in crystal coordinates                weights
   0:     0.12500000    0.12500000   -0.12500000          6/64
   1:     0.37500000   -0.12500000   -0.12500000          8/64
   2:     0.37500000    0.12500000   -0.12500000         24/64
   3:     0.37500000    0.37500000   -0.37500000          6/64
   4:     0.37500000    0.37500000    0.12500000         12/64
   5:     0.37500000    0.37500000    0.37500000          8/64

Wave functions: Plane wave expansion
  Cutoff energy: 450.000 eV
  Number of coefficients (min, max): 844, 863
  Pulay-stress correction: 0.000000 eV/Ang^3 (de/decut=0.000000)
  Using Numpy's FFT
  ScaLapack parameters: grid=1x1, blocksize=None
  Wavefunction extrapolation:
    Improved wavefunction reuse through dual PAW basis 

Occupation numbers: Fermi-Dirac:
  width: 0.1000  # eV
 

Eigensolver
   Davidson(niter=2) 

Densities:
  Coarse grid: 20*20*20 grid
  Fine grid: 40*40*40 grid
  Total Charge: 0.000000 

Density mixing:
  Method: separate
  Backend: pulay
  Linear mixing parameter: 0.05
  old densities: 5
  Damping of long wavelength oscillations: 50 

Hamiltonian:
  XC and Coulomb potentials evaluated on a 40*40*40 grid
  Using the PBE Exchange-Correlation functional
  External potential:
    NoExternalPotential
 

XC parameters: PBE with 2 nearest neighbor stencil

Memory estimate:
  Process memory now: 146.14 MiB
  Calculator: 5.26 MiB
    Density: 3.10 MiB
      Arrays: 1.59 MiB
      Localized functions: 0.91 MiB
      Mixer: 0.61 MiB
    Hamiltonian: 1.06 MiB
      Arrays: 1.04 MiB
      XC: 0.00 MiB
      Poisson: 0.00 MiB
      vbar: 0.02 MiB
    Wavefunctions: 1.10 MiB
      Arrays psit_nG: 0.32 MiB
      Eigensolver: 0.12 MiB
      Projections: 0.00 MiB
      Projectors: 0.27 MiB
      PW-descriptor: 0.38 MiB

Total number of cores used: 1

Number of atoms: 1
Number of atomic orbitals: 4
Number of bands in calculation: 4
Number of valence electrons: 1
Bands to converge: occupied

... initialized

Initializing position-dependent things.

Density initialized from atomic densities
Creating initial wave functions:
  4 bands from LCAO basis set

                
                
                
       Na       
                
                
                
                

Positions:
   0 Na     0.000000    0.000000    0.000000    ( 0.0000,  0.0000,  0.0000)

Unit cell:
           periodic     x           y           z      points  spacing
  1. axis:    yes   -2.145000    2.145000    2.145000    20     0.1517
  2. axis:    yes    2.145000   -2.145000    2.145000    20     0.1517
  3. axis:    yes    2.145000    2.145000   -2.145000    20     0.1517

  Lengths:   3.715249   3.715249   3.715249
  Angles:  109.471221 109.471221 109.471221

Effective grid spacing dv^(1/3) = 0.1702

     iter     time        total  log10-change:
                         energy   eigst   dens
iter:   1 10:15:54    -1.293238
iter:   2 10:15:54    -1.293129   -3.70  -0.85
iter:   3 10:15:54    -1.291714   -3.67  -0.87
iter:   4 10:15:54    -1.291601   -6.00  -1.67
iter:   5 10:15:54    -1.291602c  -7.48c -2.63
iter:   6 10:15:54    -1.291586c  -5.98  -2.57
iter:   7 10:15:54    -1.291586c  -7.81c -3.76
iter:   8 10:15:54    -1.291586c  -8.78c -3.64
iter:   9 10:15:54    -1.291586c  -9.15c -4.13c

Converged after 9 iterations.

Dipole moment: (0.000000, -0.000000, -0.000000) |e|*Ang

Energy contributions relative to reference atoms: (reference = -4418.610496)

Kinetic:         +1.530084
Potential:       -1.398249
External:        +0.000000
XC:              -1.401672
Entropy (-ST):   -0.042179
Local:           -0.000660
SIC:             +0.000000
--------------------------
Free energy:     -1.312675
Extrapolated:    -1.291586

Showing only first 2 kpts
 Kpt  Band  Eigenvalues  Occupancy
  0     0     -2.67753    2.00000
  0     1      8.86846    0.00000

  1     0     -1.64327    1.99998
  1     1      6.03534    0.00000


Fermi level: -0.51343

No gap
No difference between direct/indirect transitions
Timing:                              incl.     excl.
-----------------------------------------------------------
Hamiltonian:                         0.014     0.000   0.0% |
 Atomic:                             0.006     0.000   0.0% |
  XC Correction:                     0.006     0.006   1.3% ||
 Calculate atomic Hamiltonians:      0.000     0.000   0.1% |
 Communicate:                        0.000     0.000   0.0% |
 Initialize Hamiltonian:             0.000     0.000   0.0% |
 Poisson:                            0.000     0.000   0.0% |
 XC 3D grid:                         0.007     0.007   1.6% ||
LCAO initialization:                 0.027     0.002   0.5% |
 LCAO eigensolver:                   0.011     0.000   0.0% |
  Calculate projections:             0.000     0.000   0.0% |
  DenseAtomicCorrection:             0.000     0.000   0.0% |
  Distribute overlap matrix:         0.000     0.000   0.0% |
  Orbital Layouts:                   0.001     0.001   0.2% |
  Potential matrix:                  0.010     0.010   2.1% ||
  Sum over cells:                    0.000     0.000   0.1% |
 LCAO to grid:                       0.008     0.008   1.7% ||
 Set positions (LCAO WFS):           0.006     0.001   0.1% |
  Basic WFS set positions:           0.000     0.000   0.1% |
  Basis functions set positions:     0.000     0.000   0.0% |
  P tci:                             0.001     0.001   0.2% |
  ST tci:                            0.002     0.002   0.4% |
  mktci:                             0.002     0.002   0.3% |
PWDescriptor:                        0.001     0.001   0.2% |
SCF-cycle:                           0.379     0.003   0.7% |
 Davidson:                           0.229     0.013   3.0% ||
  Apply H:                           0.039     0.039   8.6% |--|
   HMM T:                            0.000     0.000   0.1% |
  Subspace diag:                     0.050     0.001   0.1% |
   calc_h_matrix:                    0.044     0.003   0.7% |
    Apply H:                         0.041     0.040   8.9% |---|
     HMM T:                          0.001     0.001   0.1% |
   diagonalize:                      0.005     0.005   1.1% |
   rotate_psi:                       0.001     0.001   0.3% |
  calc. matrices:                    0.091     0.013   2.9% ||
   Apply H:                          0.077     0.077  17.0% |------|
    HMM T:                           0.001     0.001   0.2% |
  diagonalize:                       0.034     0.034   7.4% |--|
  rotate_psi:                        0.002     0.002   0.4% |
 Density:                            0.037     0.000   0.0% |
  Atomic density matrices:           0.001     0.001   0.3% |
  Mix:                               0.007     0.007   1.7% ||
  Multipole moments:                 0.000     0.000   0.0% |
  Pseudo density:                    0.028     0.018   4.0% |-|
   Symmetrize density:               0.010     0.010   2.2% ||
 Hamiltonian:                        0.109     0.001   0.2% |
  Atomic:                            0.048     0.001   0.2% |
   XC Correction:                    0.048     0.048  10.6% |---|
  Calculate atomic Hamiltonians:     0.002     0.002   0.4% |
  Communicate:                       0.000     0.000   0.0% |
  Poisson:                           0.000     0.000   0.1% |
  XC 3D grid:                        0.058     0.058  12.7% |----|
 Orthonormalize:                     0.001     0.000   0.0% |
  calc_s_matrix:                     0.000     0.000   0.1% |
  inverse-cholesky:                  0.000     0.000   0.0% |
  projections:                       0.000     0.000   0.0% |
  rotate_psi_s:                      0.000     0.000   0.0% |
Set symmetry:                        0.003     0.003   0.8% |
Other:                               0.027     0.027   6.0% |-|
-----------------------------------------------------------
Total:                                         0.451 100.0%

Memory usage: 152.28 MiB
Date: Sun Feb 23 10:15:54 2025
