
  ___ ___ ___ _ _ _  
 |   |   |_  | | | | 
 | | | | | . | | | | 
 |__ |  _|___|_____|  25.1.0
 |___|_|             

User:   zoe@dhcp-140-120.vpn.chalmers.se
Date:   Sun Feb 23 23:39:56 2025
Arch:   arm64
Pid:    17454
CWD:    /Users/zoe/Documents/GitHub/TIF320_Computitional_Materials_and_Molecular_Physics
Python: 3.12.2
gpaw:   /opt/anaconda3/envs/tif320env/lib/python3.12/site-packages/gpaw
_gpaw:  /opt/anaconda3/envs/tif320env/lib/python3.12/site-packages/
        _gpaw.cpython-312-darwin.so
ase:    /opt/anaconda3/envs/tif320env/lib/python3.12/site-packages/ase (version 3.24.0)
numpy:  /opt/anaconda3/envs/tif320env/lib/python3.12/site-packages/numpy (version 2.0.1)
scipy:  /opt/anaconda3/envs/tif320env/lib/python3.12/site-packages/scipy (version 1.15.1)
libxc:  7.0.0
units:  Angstrom and eV
cores: 1
OpenMP: False
OMP_NUM_THREADS: 1

Input parameters:
  kpts: [4 4 4]
  mode: {ecut: 300.0,
         name: pw}
  random: True
  setups: {Na: 1}
  symmetry: off
  xc: PBE

System changes: positions, numbers, cell, pbc, initial_charges, initial_magmoms 

Initialize ...

species:
  Na:
    name: Sodium
    id: 8dbce52902f3add137ce7d12431c9cac
    Z: 11.0
    valence: 1
    core: 10
    charge: 0.0
    file: /opt/anaconda3/envs/tif320env/gpaw-setups/gpaw-setups-24.11.0/Na.1.PBE.gz
    compensation charges: {type: gauss,
                           rc: 0.43,
                           lmax: 2}
    cutoffs: {filter: 2.36,
              core: 3.60}
    projectors:
      #              energy  rcut
      - 3s(1.00)    -2.744   1.349
      - 3p(0.00)    -0.743   1.349
      -  s          24.468   1.349
  
    # Using partial waves for Na as LCAO basis

Reference energy: -35348.883966  # eV

Spin-paired calculation

Convergence criteria:
 Maximum [total energy] change in last 3 cyles: 0.0005 eV / valence electron
 Maximum integral of absolute [dens]ity change: 0.0001 electrons / valence electron
 Maximum integral of absolute [eigenst]ate change: 4e-08 eV^2 / valence electron
 Maximum number of scf [iter]ations: 333
 (Square brackets indicate name in SCF output, whereas a 'c' in
 the SCF output indicates the quantity has converged.)

Symmetries present (total): 1

  ( 1  0  0)
  ( 0  1  0)
  ( 0  0  1)

64 k-points: 4 x 4 x 4 Monkhorst-Pack grid
64 k-points in the irreducible part of the Brillouin zone
       k-points in crystal coordinates                weights
   0:    -0.37500000   -0.37500000   -0.37500000          1/64
   1:    -0.37500000   -0.37500000   -0.12500000          1/64
   2:    -0.37500000   -0.37500000    0.12500000          1/64
   3:    -0.37500000   -0.37500000    0.37500000          1/64
   4:    -0.37500000   -0.12500000   -0.37500000          1/64
   5:    -0.37500000   -0.12500000   -0.12500000          1/64
   6:    -0.37500000   -0.12500000    0.12500000          1/64
   7:    -0.37500000   -0.12500000    0.37500000          1/64
   8:    -0.37500000    0.12500000   -0.37500000          1/64
   9:    -0.37500000    0.12500000   -0.12500000          1/64
          ...
  63:     0.37500000    0.37500000    0.37500000          1/64

Wave functions: Plane wave expansion
  Cutoff energy: 300.000 eV
  Number of coefficients (min, max): 3467, 3496
  Pulay-stress correction: 0.000000 eV/Ang^3 (de/decut=0.000000)
  Using Numpy's FFT
  ScaLapack parameters: grid=1x1, blocksize=None
  Wavefunction extrapolation:
    Improved wavefunction reuse through dual PAW basis 

Occupation numbers: Fermi-Dirac:
  width: 0.1000  # eV
 

Eigensolver
   Davidson(niter=2) 

Densities:
  Coarse grid: 30*30*30 grid
  Fine grid: 60*60*60 grid
  Total Charge: 0.000000 

Density mixing:
  Method: separate
  Backend: pulay
  Linear mixing parameter: 0.05
  old densities: 5
  Damping of long wavelength oscillations: 50 

Hamiltonian:
  XC and Coulomb potentials evaluated on a 60*60*60 grid
  Using the PBE Exchange-Correlation functional
  External potential:
    NoExternalPotential
 

XC parameters: PBE with 2 nearest neighbor stencil

Memory estimate:
  Process memory now: 141.33 MiB
  Calculator: 62.85 MiB
    Density: 11.09 MiB
      Arrays: 5.36 MiB
      Localized functions: 3.68 MiB
      Mixer: 2.06 MiB
    Hamiltonian: 3.58 MiB
      Arrays: 3.50 MiB
      XC: 0.00 MiB
      Poisson: 0.00 MiB
      vbar: 0.08 MiB
    Wavefunctions: 48.18 MiB
      Arrays psit_nG: 30.73 MiB
      Eigensolver: 0.76 MiB
      Projections: 0.35 MiB
      Projectors: 11.89 MiB
      PW-descriptor: 4.44 MiB

Total number of cores used: 1

Number of atoms: 8
Number of atomic orbitals: 32
Number of bands in calculation: 9
Number of valence electrons: 8
Bands to converge: occupied

... initialized

Initializing position-dependent things.

Density initialized from atomic densities
Creating initial wave functions:
  9 bands from LCAO basis set

                                   
                                   
                                   
                                   
                                   
                                   
             Na                    
                                   
         Na         Na             
                Na                 
                 Na                
             Na         Na         
                                   
                    Na             
                                   
                                   
                                   
                                   
                                   
                                   

Positions:
   0 Na    -0.005774    0.005774    0.005774    ( 0.0000,  0.0000,  0.0000)
   1 Na    -2.096600    2.096600    2.096600    ( 0.0000,  0.0000,  0.0000)
   2 Na     2.096600   -2.096600    2.096600    ( 0.0000,  0.0000,  0.0000)
   3 Na     0.000000    0.000000    4.193200    ( 0.0000,  0.0000,  0.0000)
   4 Na     2.096600    2.096600   -2.096600    ( 0.0000,  0.0000,  0.0000)
   5 Na     0.000000    4.193200    0.000000    ( 0.0000,  0.0000,  0.0000)
   6 Na     4.193200    0.000000    0.000000    ( 0.0000,  0.0000,  0.0000)
   7 Na     2.096600    2.096600    2.096600    ( 0.0000,  0.0000,  0.0000)

Unit cell:
           periodic     x           y           z      points  spacing
  1. axis:    yes   -4.193200    4.193200    4.193200    30     0.1977
  2. axis:    yes    4.193200   -4.193200    4.193200    30     0.1977
  3. axis:    yes    4.193200    4.193200   -4.193200    30     0.1977

  Lengths:   7.262835   7.262835   7.262835
  Angles:  109.471221 109.471221 109.471221

Effective grid spacing dv^(1/3) = 0.2219

     iter     time        total  log10-change:
                         energy   eigst   dens
iter:   1 23:39:59   -10.494794
iter:   2 23:40:01   -10.493519   -3.30  -0.86
iter:   3 23:40:03   -10.476925   -3.33  -0.87
iter:   4 23:40:05   -10.473917   -5.16  -1.43
iter:   5 23:40:07   -10.473897c  -7.25  -2.50
iter:   6 23:40:08   -10.473687c  -6.10  -2.63
iter:   7 23:40:10   -10.473662c  -6.77  -3.12
iter:   8 23:40:12   -10.473660c  -7.27  -3.45
iter:   9 23:40:13   -10.473660c  -8.82c -3.89
iter:  10 23:40:15   -10.473660c -10.13c -4.23c

Converged after 10 iterations.

Dipole moment: (0.047388, -0.047388, -0.047388) |e|*Ang

Energy contributions relative to reference atoms: (reference = -35348.883966)

Kinetic:        +17.002613
Potential:      -15.004776
External:        +0.000000
XC:             -12.412497
Entropy (-ST):   -0.107318
Local:           -0.005341
SIC:             +0.000000
--------------------------
Free energy:    -10.527318
Extrapolated:   -10.473660

Showing only first 2 kpts
 Kpt  Band  Eigenvalues  Occupancy
  0     2     -1.66819    2.00000
  0     3      0.44430    0.17254
  0     4      0.44650    0.16910
  0     5      0.44821    0.16649

  1     2     -0.86760    1.99996
  1     3     -0.86760    1.99996
  1     4      1.20565    0.00009
  1     5      1.20565    0.00009


Fermi level: 0.20830

No gap
No difference between direct/indirect transitions

Forces in eV/Ang:
  0 Na    0.00391   -0.00391   -0.00391
  1 Na   -0.00278    0.00278    0.00278
  2 Na   -0.00095    0.00095   -0.00088
  3 Na    0.00001   -0.00001    0.00014
  4 Na   -0.00095   -0.00088    0.00095
  5 Na    0.00001    0.00014   -0.00001
  6 Na   -0.00014   -0.00001   -0.00001
  7 Na    0.00088    0.00095    0.00095

System changes: positions 

Initializing position-dependent things.

Density initialized from wave functions
                                   
                                   
                                   
                                   
                                   
                                   
             Na                    
                                   
         Na         Na             
                Na                 
                 Na                
             Na         Na         
                                   
                    Na             
                                   
                                   
                                   
                                   
                                   
                                   

Positions:
   0 Na     0.005774   -0.005774   -0.005774    ( 0.0000,  0.0000,  0.0000)
   1 Na    -2.096600    2.096600    2.096600    ( 0.0000,  0.0000,  0.0000)
   2 Na     2.096600   -2.096600    2.096600    ( 0.0000,  0.0000,  0.0000)
   3 Na     0.000000    0.000000    4.193200    ( 0.0000,  0.0000,  0.0000)
   4 Na     2.096600    2.096600   -2.096600    ( 0.0000,  0.0000,  0.0000)
   5 Na     0.000000    4.193200    0.000000    ( 0.0000,  0.0000,  0.0000)
   6 Na     4.193200    0.000000    0.000000    ( 0.0000,  0.0000,  0.0000)
   7 Na     2.096600    2.096600    2.096600    ( 0.0000,  0.0000,  0.0000)

Unit cell:
           periodic     x           y           z      points  spacing
  1. axis:    yes   -4.193200    4.193200    4.193200    30     0.1977
  2. axis:    yes    4.193200   -4.193200    4.193200    30     0.1977
  3. axis:    yes    4.193200    4.193200   -4.193200    30     0.1977

  Lengths:   7.262835   7.262835   7.262835
  Angles:  109.471221 109.471221 109.471221

Effective grid spacing dv^(1/3) = 0.2219

     iter     time        total  log10-change:
                         energy   eigst   dens
iter:   1 23:40:17   -10.473784   -4.22
iter:   2 23:40:19   -10.473757   -6.15  -2.32
iter:   3 23:40:21   -10.473660c  -5.84  -2.37
iter:   4 23:40:22   -10.473660c  -7.33  -3.02
iter:   5 23:40:24   -10.473660c  -7.58c -3.06
iter:   6 23:40:26   -10.473660c  -8.30c -4.01c

Converged after 6 iterations.

Dipole moment: (-0.047844, 0.047844, 0.047844) |e|*Ang

Energy contributions relative to reference atoms: (reference = -35348.883966)

Kinetic:        +17.002286
Potential:      -15.004479
External:        +0.000000
XC:             -12.412428
Entropy (-ST):   -0.107317
Local:           -0.005380
SIC:             +0.000000
--------------------------
Free energy:    -10.527319
Extrapolated:   -10.473660

Showing only first 2 kpts
 Kpt  Band  Eigenvalues  Occupancy
  0     2     -1.66801    2.00000
  0     3      0.44430    0.17254
  0     4      0.44632    0.16938
  0     5      0.44820    0.16649

  1     2     -0.86760    1.99996
  1     3     -0.86760    1.99996
  1     4      1.20565    0.00009
  1     5      1.20565    0.00009


Fermi level: 0.20829

No gap
No difference between direct/indirect transitions

Forces in eV/Ang:
  0 Na   -0.00436    0.00436    0.00436
  1 Na    0.00335   -0.00335   -0.00335
  2 Na    0.00075   -0.00075    0.00185
  3 Na    0.00015   -0.00015   -0.00112
  4 Na    0.00075    0.00185   -0.00075
  5 Na    0.00015   -0.00112   -0.00015
  6 Na    0.00112   -0.00015   -0.00015
  7 Na   -0.00185   -0.00075   -0.00075

System changes: positions 

Initializing position-dependent things.

Density initialized from wave functions
                                   
                                   
                                   
                                   
                                   
                                   
             Na                    
                                   
         Na         Na             
                Na                 
                 Na                
             Na         Na         
                                   
                    Na             
                                   
                                   
                                   
                                   
                                   
                                   

Positions:
   0 Na     0.005774   -0.005774    0.005774    ( 0.0000,  0.0000,  0.0000)
   1 Na    -2.096600    2.096600    2.096600    ( 0.0000,  0.0000,  0.0000)
   2 Na     2.096600   -2.096600    2.096600    ( 0.0000,  0.0000,  0.0000)
   3 Na     0.000000    0.000000    4.193200    ( 0.0000,  0.0000,  0.0000)
   4 Na     2.096600    2.096600   -2.096600    ( 0.0000,  0.0000,  0.0000)
   5 Na     0.000000    4.193200    0.000000    ( 0.0000,  0.0000,  0.0000)
   6 Na     4.193200    0.000000    0.000000    ( 0.0000,  0.0000,  0.0000)
   7 Na     2.096600    2.096600    2.096600    ( 0.0000,  0.0000,  0.0000)

Unit cell:
           periodic     x           y           z      points  spacing
  1. axis:    yes   -4.193200    4.193200    4.193200    30     0.1977
  2. axis:    yes    4.193200   -4.193200    4.193200    30     0.1977
  3. axis:    yes    4.193200    4.193200   -4.193200    30     0.1977

  Lengths:   7.262835   7.262835   7.262835
  Angles:  109.471221 109.471221 109.471221

Effective grid spacing dv^(1/3) = 0.2219

     iter     time        total  log10-change:
                         energy   eigst   dens
iter:   1 23:40:28   -10.473696   -4.69
iter:   2 23:40:29   -10.473688   -6.65  -2.64
iter:   3 23:40:31   -10.473660c  -6.36  -2.69
iter:   4 23:40:33   -10.473660c  -7.90c -3.27
iter:   5 23:40:35   -10.473660c  -8.16c -3.32
iter:   6 23:40:36   -10.473660c  -8.74c -4.23c

Converged after 6 iterations.

Dipole moment: (-0.047417, 0.047418, -0.047837) |e|*Ang

Energy contributions relative to reference atoms: (reference = -35348.883966)

Kinetic:        +17.002263
Potential:      -15.004458
External:        +0.000000
XC:             -12.412426
Entropy (-ST):   -0.107317
Local:           -0.005379
SIC:             +0.000000
--------------------------
Free energy:    -10.527319
Extrapolated:   -10.473660

Showing only first 2 kpts
 Kpt  Band  Eigenvalues  Occupancy
  0     2     -1.66814    2.00000
  0     3      0.44430    0.17254
  0     4      0.44645    0.16919
  0     5      0.44820    0.16649

  1     2     -0.86760    1.99996
  1     3     -0.86760    1.99996
  1     4      1.20565    0.00009
  1     5      1.20565    0.00009


Fermi level: 0.20830

No gap
No difference between direct/indirect transitions

Forces in eV/Ang:
  0 Na   -0.00396    0.00396   -0.00435
  1 Na    0.00059   -0.00059   -0.00113
  2 Na    0.00318   -0.00318    0.00263
  3 Na   -0.00001    0.00001    0.00111
  4 Na   -0.00129   -0.00129    0.00075
  5 Na   -0.00001   -0.00020    0.00015
  6 Na    0.00020    0.00001    0.00015
  7 Na    0.00130    0.00129    0.00075

System changes: positions 

Initializing position-dependent things.

Density initialized from wave functions
                                   
                                   
                                   
                                   
                                   
                                   
             Na                    
                                   
         Na         Na             
                Na                 
                 Na                
             Na         Na         
                                   
                    Na             
                                   
                                   
                                   
                                   
                                   
                                   

Positions:
   0 Na    -0.005774    0.005774   -0.005774    ( 0.0000,  0.0000,  0.0000)
   1 Na    -2.096600    2.096600    2.096600    ( 0.0000,  0.0000,  0.0000)
   2 Na     2.096600   -2.096600    2.096600    ( 0.0000,  0.0000,  0.0000)
   3 Na     0.000000    0.000000    4.193200    ( 0.0000,  0.0000,  0.0000)
   4 Na     2.096600    2.096600   -2.096600    ( 0.0000,  0.0000,  0.0000)
   5 Na     0.000000    4.193200    0.000000    ( 0.0000,  0.0000,  0.0000)
   6 Na     4.193200    0.000000    0.000000    ( 0.0000,  0.0000,  0.0000)
   7 Na     2.096600    2.096600    2.096600    ( 0.0000,  0.0000,  0.0000)

Unit cell:
           periodic     x           y           z      points  spacing
  1. axis:    yes   -4.193200    4.193200    4.193200    30     0.1977
  2. axis:    yes    4.193200   -4.193200    4.193200    30     0.1977
  3. axis:    yes    4.193200    4.193200   -4.193200    30     0.1977

  Lengths:   7.262835   7.262835   7.262835
  Angles:  109.471221 109.471221 109.471221

Effective grid spacing dv^(1/3) = 0.2219

     iter     time        total  log10-change:
                         energy   eigst   dens
iter:   1 23:40:38   -10.473778   -4.21
iter:   2 23:40:40   -10.473752   -6.16  -2.33
iter:   3 23:40:42   -10.473660c  -5.85  -2.38
iter:   4 23:40:43   -10.473660c  -7.31  -3.02
iter:   5 23:40:45   -10.473660c  -7.57c -3.06
iter:   6 23:40:47   -10.473660c  -8.21c -4.02c

Converged after 6 iterations.

Dipole moment: (0.047891, -0.047892, 0.047863) |e|*Ang

Energy contributions relative to reference atoms: (reference = -35348.883966)

Kinetic:        +17.002274
Potential:      -15.004468
External:        +0.000000
XC:             -12.412428
Entropy (-ST):   -0.107317
Local:           -0.005379
SIC:             +0.000000
--------------------------
Free energy:    -10.527319
Extrapolated:   -10.473660

Showing only first 2 kpts
 Kpt  Band  Eigenvalues  Occupancy
  0     2     -1.66800    2.00000
  0     3      0.44430    0.17254
  0     4      0.44631    0.16940
  0     5      0.44820    0.16649

  1     2     -0.86760    1.99996
  1     3     -0.86760    1.99996
  1     4      1.20565    0.00009
  1     5      1.20565    0.00009


Fermi level: 0.20829

No gap
No difference between direct/indirect transitions

Forces in eV/Ang:
  0 Na    0.00446   -0.00446    0.00441
  1 Na   -0.00078    0.00078    0.00192
  2 Na   -0.00341    0.00341   -0.00343
  3 Na   -0.00015    0.00015   -0.00114
  4 Na    0.00190    0.00073   -0.00076
  5 Na   -0.00015    0.00120   -0.00014
  6 Na   -0.00119    0.00015   -0.00014
  7 Na   -0.00073   -0.00190   -0.00076

System changes: positions 

Initializing position-dependent things.

Density initialized from wave functions
                                   
                                   
                                   
                                   
                                   
                                   
             Na                    
                                   
         Na         Na             
                Na                 
                 Na                
             Na         Na         
                                   
                    Na             
                                   
                                   
                                   
                                   
                                   
                                   

Positions:
   0 Na     0.005774    0.005774   -0.005774    ( 0.0000,  0.0000,  0.0000)
   1 Na    -2.096600    2.096600    2.096600    ( 0.0000,  0.0000,  0.0000)
   2 Na     2.096600   -2.096600    2.096600    ( 0.0000,  0.0000,  0.0000)
   3 Na     0.000000    0.000000    4.193200    ( 0.0000,  0.0000,  0.0000)
   4 Na     2.096600    2.096600   -2.096600    ( 0.0000,  0.0000,  0.0000)
   5 Na     0.000000    4.193200    0.000000    ( 0.0000,  0.0000,  0.0000)
   6 Na     4.193200    0.000000    0.000000    ( 0.0000,  0.0000,  0.0000)
   7 Na     2.096600    2.096600    2.096600    ( 0.0000,  0.0000,  0.0000)

Unit cell:
           periodic     x           y           z      points  spacing
  1. axis:    yes   -4.193200    4.193200    4.193200    30     0.1977
  2. axis:    yes    4.193200   -4.193200    4.193200    30     0.1977
  3. axis:    yes    4.193200    4.193200   -4.193200    30     0.1977

  Lengths:   7.262835   7.262835   7.262835
  Angles:  109.471221 109.471221 109.471221

Effective grid spacing dv^(1/3) = 0.2219

     iter     time        total  log10-change:
                         energy   eigst   dens
iter:   1 23:40:49   -10.473696   -4.70
iter:   2 23:40:51   -10.473688   -6.65  -2.64
iter:   3 23:40:53   -10.473660c  -6.38  -2.69
iter:   4 23:40:54   -10.473660c  -7.94c -3.27
iter:   5 23:40:56   -10.473660c  -8.19c -3.33
iter:   6 23:40:59   -10.473660c  -8.74c -4.23c

Converged after 6 iterations.

Dipole moment: (-0.047844, -0.047421, 0.047419) |e|*Ang

Energy contributions relative to reference atoms: (reference = -35348.883966)

Kinetic:        +17.002276
Potential:      -15.004469
External:        +0.000000
XC:             -12.412429
Entropy (-ST):   -0.107317
Local:           -0.005378
SIC:             +0.000000
--------------------------
Free energy:    -10.527319
Extrapolated:   -10.473660

Showing only first 2 kpts
 Kpt  Band  Eigenvalues  Occupancy
  0     2     -1.66814    2.00000
  0     3      0.44430    0.17254
  0     4      0.44645    0.16919
  0     5      0.44820    0.16649

  1     2     -0.86887    1.99996
  1     3     -0.86633    1.99996
  1     4      1.20444    0.00009
  1     5      1.20686    0.00009


Fermi level: 0.20830

No gap
No difference between direct/indirect transitions

Forces in eV/Ang:
  0 Na   -0.00437   -0.00396    0.00396
  1 Na    0.00075   -0.00130   -0.00130
  2 Na   -0.00113    0.00059   -0.00059
  3 Na    0.00015   -0.00001   -0.00020
  4 Na    0.00264    0.00318   -0.00318
  5 Na    0.00015    0.00020    0.00001
  6 Na    0.00111   -0.00001    0.00001
  7 Na    0.00076    0.00130    0.00130

System changes: positions 

Initializing position-dependent things.

Density initialized from wave functions
                                   
                                   
                                   
                                   
                                   
                                   
             Na                    
                                   
         Na         Na             
                Na                 
                 Na                
             Na         Na         
                                   
                    Na             
                                   
                                   
                                   
                                   
                                   
                                   

Positions:
   0 Na    -0.005774   -0.005774    0.005774    ( 0.0000,  0.0000,  0.0000)
   1 Na    -2.096600    2.096600    2.096600    ( 0.0000,  0.0000,  0.0000)
   2 Na     2.096600   -2.096600    2.096600    ( 0.0000,  0.0000,  0.0000)
   3 Na     0.000000    0.000000    4.193200    ( 0.0000,  0.0000,  0.0000)
   4 Na     2.096600    2.096600   -2.096600    ( 0.0000,  0.0000,  0.0000)
   5 Na     0.000000    4.193200    0.000000    ( 0.0000,  0.0000,  0.0000)
   6 Na     4.193200    0.000000    0.000000    ( 0.0000,  0.0000,  0.0000)
   7 Na     2.096600    2.096600    2.096600    ( 0.0000,  0.0000,  0.0000)

Unit cell:
           periodic     x           y           z      points  spacing
  1. axis:    yes   -4.193200    4.193200    4.193200    30     0.1977
  2. axis:    yes    4.193200   -4.193200    4.193200    30     0.1977
  3. axis:    yes    4.193200    4.193200   -4.193200    30     0.1977

  Lengths:   7.262835   7.262835   7.262835
  Angles:  109.471221 109.471221 109.471221

Effective grid spacing dv^(1/3) = 0.2219

     iter     time        total  log10-change:
                         energy   eigst   dens
iter:   1 23:41:01   -10.473778   -4.21
iter:   2 23:41:02   -10.473752   -6.16  -2.33
iter:   3 23:41:05   -10.473660c  -5.85  -2.38
iter:   4 23:41:07   -10.473660c  -7.30  -3.02
iter:   5 23:41:09   -10.473660c  -7.57c -3.06
iter:   6 23:41:11   -10.473660c  -8.20c -4.02c

Converged after 6 iterations.

Dipole moment: (0.047865, 0.047894, -0.047894) |e|*Ang

Energy contributions relative to reference atoms: (reference = -35348.883966)

Kinetic:        +17.002274
Potential:      -15.004468
External:        +0.000000
XC:             -12.412428
Entropy (-ST):   -0.107317
Local:           -0.005379
SIC:             +0.000000
--------------------------
Free energy:    -10.527319
Extrapolated:   -10.473660

Showing only first 2 kpts
 Kpt  Band  Eigenvalues  Occupancy
  0     2     -1.66800    2.00000
  0     3      0.44430    0.17254
  0     4      0.44631    0.16940
  0     5      0.44820    0.16649

  1     2     -0.86894    1.99996
  1     3     -0.86626    1.99996
  1     4      1.20437    0.00009
  1     5      1.20693    0.00009


Fermi level: 0.20829

No gap
No difference between direct/indirect transitions

Forces in eV/Ang:
  0 Na    0.00442    0.00446   -0.00446
  1 Na   -0.00076    0.00190    0.00073
  2 Na    0.00192   -0.00078    0.00078
  3 Na   -0.00014   -0.00015    0.00120
  4 Na   -0.00344   -0.00341    0.00341
  5 Na   -0.00014   -0.00120    0.00015
  6 Na   -0.00114   -0.00015    0.00015
  7 Na   -0.00076   -0.00073   -0.00190

Timing:                                      incl.     excl.
-------------------------------------------------------------------
Density initialized from wave functions:     0.675     0.675   0.9% |
 Symmetrize density:                         0.000     0.000   0.0% |
Forces:                                      1.083     1.083   1.4% ||
Hamiltonian:                                 0.509     0.003   0.0% |
 Atomic:                                     0.307     0.002   0.0% |
  XC Correction:                             0.306     0.306   0.4% |
 Calculate atomic Hamiltonians:              0.037     0.037   0.0% |
 Communicate:                                0.000     0.000   0.0% |
 Initialize Hamiltonian:                     0.000     0.000   0.0% |
 Poisson:                                    0.001     0.001   0.0% |
 XC 3D grid:                                 0.161     0.161   0.2% |
LCAO initialization:                         1.109     0.003   0.0% |
 LCAO eigensolver:                           0.128     0.000   0.0% |
  Calculate projections:                     0.001     0.001   0.0% |
  DenseAtomicCorrection:                     0.004     0.004   0.0% |
  Distribute overlap matrix:                 0.000     0.000   0.0% |
  Orbital Layouts:                           0.074     0.074   0.1% |
  Potential matrix:                          0.044     0.044   0.1% |
  Sum over cells:                            0.005     0.005   0.0% |
 LCAO to grid:                               0.777     0.777   1.0% |
 Set positions (LCAO WFS):                   0.201     0.024   0.0% |
  Basic WFS set positions:                   0.000     0.000   0.0% |
  Basis functions set positions:             0.000     0.000   0.0% |
  P tci:                                     0.113     0.113   0.1% |
  ST tci:                                    0.062     0.062   0.1% |
  mktci:                                     0.002     0.002   0.0% |
PWDescriptor:                                0.019     0.019   0.0% |
Redistribute:                                0.015     0.015   0.0% |
SCF-cycle:                                  71.624     0.069   0.1% |
 Davidson:                                  63.685    11.578  15.2% |-----|
  Apply H:                                  10.088     9.880  13.0% |----|
   HMM T:                                    0.208     0.208   0.3% |
  Subspace diag:                            12.153     0.037   0.0% |
   calc_h_matrix:                           10.502     0.367   0.5% |
    Apply H:                                10.135     9.943  13.1% |----|
     HMM T:                                  0.192     0.192   0.3% |
   diagonalize:                              0.505     0.505   0.7% |
   rotate_psi:                               1.109     1.109   1.5% ||
  calc. matrices:                           24.202     4.015   5.3% |-|
   Apply H:                                 20.187    19.818  26.1% |---------|
    HMM T:                                   0.369     0.369   0.5% |
  diagonalize:                               3.539     3.539   4.7% |-|
  rotate_psi:                                2.124     2.124   2.8% ||
 Density:                                    4.578     0.000   0.0% |
  Atomic density matrices:                   0.065     0.065   0.1% |
  Mix:                                       0.282     0.282   0.4% |
  Multipole moments:                         0.002     0.002   0.0% |
  Pseudo density:                            4.229     4.229   5.6% |-|
   Symmetrize density:                       0.000     0.000   0.0% |
 Hamiltonian:                                2.880     0.016   0.0% |
  Atomic:                                    1.737     0.008   0.0% |
   XC Correction:                            1.729     1.729   2.3% ||
  Calculate atomic Hamiltonians:             0.212     0.212   0.3% |
  Communicate:                               0.000     0.000   0.0% |
  Poisson:                                   0.004     0.004   0.0% |
  XC 3D grid:                                0.910     0.910   1.2% |
 Orthonormalize:                             0.413     0.006   0.0% |
  calc_s_matrix:                             0.048     0.048   0.1% |
  inverse-cholesky:                          0.006     0.006   0.0% |
  projections:                               0.295     0.295   0.4% |
  rotate_psi_s:                              0.058     0.058   0.1% |
Set symmetry:                                0.000     0.000   0.0% |
Other:                                       0.949     0.949   1.2% |
-------------------------------------------------------------------
Total:                                                75.984 100.0%

Memory usage: 507.92 MiB
Date: Sun Feb 23 23:41:12 2025
