
  ___ ___ ___ _ _ _  
 |   |   |_  | | | | 
 | | | | | . | | | | 
 |__ |  _|___|_____|  25.1.0
 |___|_|             

User:   zoe@dhcp-140-117.vpn.chalmers.se
Date:   Tue Feb 25 21:35:14 2025
Arch:   arm64
Pid:    34192
CWD:    /Users/zoe/Documents/GitHub/TIF320_Computitional_Materials_and_Molecular_Physics
Python: 3.12.2
gpaw:   /opt/anaconda3/envs/tif320env/lib/python3.12/site-packages/gpaw
_gpaw:  /opt/anaconda3/envs/tif320env/lib/python3.12/site-packages/
        _gpaw.cpython-312-darwin.so
ase:    /opt/anaconda3/envs/tif320env/lib/python3.12/site-packages/ase (version 3.24.0)
numpy:  /opt/anaconda3/envs/tif320env/lib/python3.12/site-packages/numpy (version 2.0.1)
scipy:  /opt/anaconda3/envs/tif320env/lib/python3.12/site-packages/scipy (version 1.15.1)
libxc:  7.0.0
units:  Angstrom and eV
cores: 1
OpenMP: False
OMP_NUM_THREADS: 1

Input parameters:
  kpts: [8 8 8]
  mode: {ecut: 500.0,
         name: pw}
  random: True
  setups: {Na: 1}
  symmetry: off
  xc: PBE

System changes: positions, numbers, cell, pbc, initial_charges, initial_magmoms 

Initialize ...

species:
  Na:
    name: Sodium
    id: 8dbce52902f3add137ce7d12431c9cac
    Z: 11.0
    valence: 1
    core: 10
    charge: 0.0
    file: /opt/anaconda3/envs/tif320env/gpaw-setups/gpaw-setups-24.11.0/Na.1.PBE.gz
    compensation charges: {type: gauss,
                           rc: 0.43,
                           lmax: 2}
    cutoffs: {filter: 2.36,
              core: 3.60}
    projectors:
      #              energy  rcut
      - 3s(1.00)    -2.744   1.349
      - 3p(0.00)    -0.743   1.349
      -  s          24.468   1.349
  
    # Using partial waves for Na as LCAO basis

Reference energy: -35348.883966  # eV

Spin-paired calculation

Convergence criteria:
 Maximum [total energy] change in last 3 cyles: 0.0005 eV / valence electron
 Maximum integral of absolute [dens]ity change: 0.0001 electrons / valence electron
 Maximum integral of absolute [eigenst]ate change: 4e-08 eV^2 / valence electron
 Maximum number of scf [iter]ations: 333
 (Square brackets indicate name in SCF output, whereas a 'c' in
 the SCF output indicates the quantity has converged.)

Symmetries present (total): 1

  ( 1  0  0)
  ( 0  1  0)
  ( 0  0  1)

512 k-points: 8 x 8 x 8 Monkhorst-Pack grid
512 k-points in the irreducible part of the Brillouin zone
       k-points in crystal coordinates                weights
   0:    -0.43750000   -0.43750000   -0.43750000          1/512
   1:    -0.43750000   -0.43750000   -0.31250000          1/512
   2:    -0.43750000   -0.43750000   -0.18750000          1/512
   3:    -0.43750000   -0.43750000   -0.06250000          1/512
   4:    -0.43750000   -0.43750000    0.06250000          1/512
   5:    -0.43750000   -0.43750000    0.18750000          1/512
   6:    -0.43750000   -0.43750000    0.31250000          1/512
   7:    -0.43750000   -0.43750000    0.43750000          1/512
   8:    -0.43750000   -0.31250000   -0.43750000          1/512
   9:    -0.43750000   -0.31250000   -0.31250000          1/512
          ...
 511:     0.43750000    0.43750000    0.43750000          1/512

Wave functions: Plane wave expansion
  Cutoff energy: 500.000 eV
  Number of coefficients (min, max): 7474, 7535
  Pulay-stress correction: 0.000000 eV/Ang^3 (de/decut=0.000000)
  Using Numpy's FFT
  ScaLapack parameters: grid=1x1, blocksize=None
  Wavefunction extrapolation:
    Improved wavefunction reuse through dual PAW basis 

Occupation numbers: Fermi-Dirac:
  width: 0.1000  # eV
 

Eigensolver
   Davidson(niter=2) 

Densities:
  Coarse grid: 40*40*40 grid
  Fine grid: 80*80*80 grid
  Total Charge: 0.000000 

Density mixing:
  Method: separate
  Backend: pulay
  Linear mixing parameter: 0.05
  old densities: 5
  Damping of long wavelength oscillations: 50 

Hamiltonian:
  XC and Coulomb potentials evaluated on a 80*80*80 grid
  Using the PBE Exchange-Correlation functional
  External potential:
    NoExternalPotential
 

XC parameters: PBE with 2 nearest neighbor stencil

Memory estimate:
  Process memory now: 230.25 MiB
  Calculator: 834.23 MiB
    Density: 25.50 MiB
      Arrays: 12.70 MiB
      Localized functions: 7.92 MiB
      Mixer: 4.88 MiB
    Hamiltonian: 8.46 MiB
      Arrays: 8.30 MiB
      XC: 0.00 MiB
      Poisson: 0.00 MiB
      vbar: 0.16 MiB
    Wavefunctions: 800.27 MiB
      Arrays psit_nG: 529.80 MiB
      Eigensolver: 1.62 MiB
      Projections: 2.81 MiB
      Projectors: 204.72 MiB
      PW-descriptor: 61.31 MiB

Total number of cores used: 1

Number of atoms: 8
Number of atomic orbitals: 32
Number of bands in calculation: 9
Number of valence electrons: 8
Bands to converge: occupied

... initialized

Initializing position-dependent things.

Density initialized from atomic densities
Creating initial wave functions:
  9 bands from LCAO basis set

                                   
                                   
                                   
                                   
                                   
                                   
             Na                    
                                   
         Na         Na             
                Na                 
                 Na                
             Na         Na         
                                   
                    Na             
                                   
                                   
                                   
                                   
                                   
                                   

Positions:
   0 Na    -0.005774    0.005774    0.005774    ( 0.0000,  0.0000,  0.0000)
   1 Na    -2.096600    2.096600    2.096600    ( 0.0000,  0.0000,  0.0000)
   2 Na     2.096600   -2.096600    2.096600    ( 0.0000,  0.0000,  0.0000)
   3 Na     0.000000    0.000000    4.193200    ( 0.0000,  0.0000,  0.0000)
   4 Na     2.096600    2.096600   -2.096600    ( 0.0000,  0.0000,  0.0000)
   5 Na     0.000000    4.193200    0.000000    ( 0.0000,  0.0000,  0.0000)
   6 Na     4.193200    0.000000    0.000000    ( 0.0000,  0.0000,  0.0000)
   7 Na     2.096600    2.096600    2.096600    ( 0.0000,  0.0000,  0.0000)

Unit cell:
           periodic     x           y           z      points  spacing
  1. axis:    yes   -4.193200    4.193200    4.193200    40     0.1483
  2. axis:    yes    4.193200   -4.193200    4.193200    40     0.1483
  3. axis:    yes    4.193200    4.193200   -4.193200    40     0.1483

  Lengths:   7.262835   7.262835   7.262835
  Angles:  109.471221 109.471221 109.471221

Effective grid spacing dv^(1/3) = 0.1664

     iter     time        total  log10-change:
                         energy   eigst   dens
iter:   1 21:35:58   -10.443277
iter:   2 21:36:27   -10.441992   -3.30  -0.85
iter:   3 21:36:52   -10.425179   -3.29  -0.87
iter:   4 21:37:18   -10.422232   -5.06  -1.44
iter:   5 21:37:42   -10.422205c  -7.09  -2.50
iter:   6 21:38:07   -10.421997c  -6.03  -2.66
iter:   7 21:38:32   -10.421983c  -6.92  -3.21
iter:   8 21:39:00   -10.421982c  -7.38  -3.49
iter:   9 21:39:26   -10.421981c  -9.01c -3.88
iter:  10 21:39:53   -10.421981c -10.18c -4.68c

Converged after 10 iterations.

Dipole moment: (0.047575, -0.047575, -0.047575) |e|*Ang

Energy contributions relative to reference atoms: (reference = -35348.883966)

Kinetic:        +17.065659
Potential:      -15.004143
External:        +0.000000
XC:             -12.414696
Entropy (-ST):   -0.126944
Local:           -0.005329
SIC:             +0.000000
--------------------------
Free energy:    -10.485453
Extrapolated:   -10.421981

Showing only first 2 kpts
 Kpt  Band  Eigenvalues  Occupancy
  0     2     -1.43290    2.00000
  0     3     -0.37150    1.98837
  0     4     -0.36972    1.98816
  0     5     -0.36794    1.98795

  1     2     -1.23389    2.00000
  1     3     -0.17271    1.91808
  1     4      0.35011    0.22313
  1     5      0.35263    0.21818


Fermi level: 0.14263

No gap
No difference between direct/indirect transitions

Forces in eV/Ang:
  0 Na    0.00404   -0.00404   -0.00404
  1 Na   -0.00291    0.00291    0.00291
  2 Na   -0.00095    0.00095   -0.00102
  3 Na    0.00001   -0.00001    0.00027
  4 Na   -0.00095   -0.00102    0.00095
  5 Na    0.00001    0.00027   -0.00001
  6 Na   -0.00027   -0.00001   -0.00001
  7 Na    0.00102    0.00095    0.00095

System changes: positions 

Initializing position-dependent things.

Density initialized from wave functions
                                   
                                   
                                   
                                   
                                   
                                   
             Na                    
                                   
         Na         Na             
                Na                 
                 Na                
             Na         Na         
                                   
                    Na             
                                   
                                   
                                   
                                   
                                   
                                   

Positions:
   0 Na     0.005774   -0.005774   -0.005774    ( 0.0000,  0.0000,  0.0000)
   1 Na    -2.096600    2.096600    2.096600    ( 0.0000,  0.0000,  0.0000)
   2 Na     2.096600   -2.096600    2.096600    ( 0.0000,  0.0000,  0.0000)
   3 Na     0.000000    0.000000    4.193200    ( 0.0000,  0.0000,  0.0000)
   4 Na     2.096600    2.096600   -2.096600    ( 0.0000,  0.0000,  0.0000)
   5 Na     0.000000    4.193200    0.000000    ( 0.0000,  0.0000,  0.0000)
   6 Na     4.193200    0.000000    0.000000    ( 0.0000,  0.0000,  0.0000)
   7 Na     2.096600    2.096600    2.096600    ( 0.0000,  0.0000,  0.0000)

Unit cell:
           periodic     x           y           z      points  spacing
  1. axis:    yes   -4.193200    4.193200    4.193200    40     0.1483
  2. axis:    yes    4.193200   -4.193200    4.193200    40     0.1483
  3. axis:    yes    4.193200    4.193200   -4.193200    40     0.1483

  Lengths:   7.262835   7.262835   7.262835
  Angles:  109.471221 109.471221 109.471221

Effective grid spacing dv^(1/3) = 0.1664

     iter     time        total  log10-change:
                         energy   eigst   dens
iter:   1 21:40:24   -10.422108   -4.21
iter:   2 21:40:50   -10.422082   -6.17  -2.33
iter:   3 21:41:16   -10.421981c  -5.77  -2.37
iter:   4 21:41:42   -10.421983c  -7.11  -3.03
iter:   5 21:42:07   -10.421981c  -7.45c -3.04
iter:   6 21:42:32   -10.421981c  -8.36c -4.03c

Converged after 6 iterations.

Dipole moment: (-0.047919, 0.047918, 0.047918) |e|*Ang

Energy contributions relative to reference atoms: (reference = -35348.883966)

Kinetic:        +17.065478
Potential:      -15.003974
External:        +0.000000
XC:             -12.414648
Entropy (-ST):   -0.126944
Local:           -0.005366
SIC:             +0.000000
--------------------------
Free energy:    -10.485453
Extrapolated:   -10.421981

Showing only first 2 kpts
 Kpt  Band  Eigenvalues  Occupancy
  0     2     -1.43277    2.00000
  0     3     -0.37163    1.98838
  0     4     -0.36972    1.98816
  0     5     -0.36781    1.98793

  1     2     -1.23389    2.00000
  1     3     -0.17271    1.91808
  1     4      0.35002    0.22332
  1     5      0.35272    0.21800


Fermi level: 0.14262

No gap
No difference between direct/indirect transitions

Forces in eV/Ang:
  0 Na   -0.00427    0.00427    0.00427
  1 Na    0.00325   -0.00325   -0.00325
  2 Na    0.00074   -0.00074    0.00177
  3 Na    0.00016   -0.00016   -0.00104
  4 Na    0.00074    0.00177   -0.00074
  5 Na    0.00016   -0.00104   -0.00016
  6 Na    0.00104   -0.00016   -0.00016
  7 Na   -0.00177   -0.00074   -0.00074

System changes: positions 

Initializing position-dependent things.

Density initialized from wave functions
                                   
                                   
                                   
                                   
                                   
                                   
             Na                    
                                   
         Na         Na             
                Na                 
                 Na                
             Na         Na         
                                   
                    Na             
                                   
                                   
                                   
                                   
                                   
                                   

Positions:
   0 Na     0.005774   -0.005774    0.005774    ( 0.0000,  0.0000,  0.0000)
   1 Na    -2.096600    2.096600    2.096600    ( 0.0000,  0.0000,  0.0000)
   2 Na     2.096600   -2.096600    2.096600    ( 0.0000,  0.0000,  0.0000)
   3 Na     0.000000    0.000000    4.193200    ( 0.0000,  0.0000,  0.0000)
   4 Na     2.096600    2.096600   -2.096600    ( 0.0000,  0.0000,  0.0000)
   5 Na     0.000000    4.193200    0.000000    ( 0.0000,  0.0000,  0.0000)
   6 Na     4.193200    0.000000    0.000000    ( 0.0000,  0.0000,  0.0000)
   7 Na     2.096600    2.096600    2.096600    ( 0.0000,  0.0000,  0.0000)

Unit cell:
           periodic     x           y           z      points  spacing
  1. axis:    yes   -4.193200    4.193200    4.193200    40     0.1483
  2. axis:    yes    4.193200   -4.193200    4.193200    40     0.1483
  3. axis:    yes    4.193200    4.193200   -4.193200    40     0.1483

  Lengths:   7.262835   7.262835   7.262835
  Angles:  109.471221 109.471221 109.471221

Effective grid spacing dv^(1/3) = 0.1664

     iter     time        total  log10-change:
                         energy   eigst   dens
iter:   1 21:43:06   -10.422020   -4.68
iter:   2 21:43:35   -10.422012   -6.66  -2.64
iter:   3 21:44:04   -10.421981c  -6.28  -2.68
iter:   4 21:44:34   -10.421981c  -7.70c -3.28
iter:   5 21:45:04   -10.421981c  -8.06c -3.32
iter:   6 21:45:33   -10.421981c  -8.68c -4.24c

Converged after 6 iterations.

Dipole moment: (-0.047594, 0.047594, -0.048013) |e|*Ang

Energy contributions relative to reference atoms: (reference = -35348.883966)

Kinetic:        +17.065455
Potential:      -15.003954
External:        +0.000000
XC:             -12.414644
Entropy (-ST):   -0.126944
Local:           -0.005366
SIC:             +0.000000
--------------------------
Free energy:    -10.485453
Extrapolated:   -10.421981

Showing only first 2 kpts
 Kpt  Band  Eigenvalues  Occupancy
  0     2     -1.43285    2.00000
  0     3     -0.37155    1.98837
  0     4     -0.36972    1.98816
  0     5     -0.36790    1.98794

  1     2     -1.23389    2.00000
  1     3     -0.17271    1.91808
  1     4      0.35010    0.22314
  1     5      0.35263    0.21817


Fermi level: 0.14262

No gap
No difference between direct/indirect transitions

Forces in eV/Ang:
  0 Na   -0.00406    0.00406   -0.00443
  1 Na    0.00060   -0.00060   -0.00125
  2 Na    0.00328   -0.00328    0.00274
  3 Na   -0.00000    0.00000    0.00121
  4 Na   -0.00140   -0.00128    0.00074
  5 Na   -0.00000   -0.00031    0.00015
  6 Na    0.00031    0.00000    0.00015
  7 Na    0.00128    0.00140    0.00074

System changes: positions 

Initializing position-dependent things.

Density initialized from wave functions
                                   
                                   
                                   
                                   
                                   
                                   
             Na                    
                                   
         Na         Na             
                Na                 
                 Na                
             Na         Na         
                                   
                    Na             
                                   
                                   
                                   
                                   
                                   
                                   

Positions:
   0 Na    -0.005774    0.005774   -0.005774    ( 0.0000,  0.0000,  0.0000)
   1 Na    -2.096600    2.096600    2.096600    ( 0.0000,  0.0000,  0.0000)
   2 Na     2.096600   -2.096600    2.096600    ( 0.0000,  0.0000,  0.0000)
   3 Na     0.000000    0.000000    4.193200    ( 0.0000,  0.0000,  0.0000)
   4 Na     2.096600    2.096600   -2.096600    ( 0.0000,  0.0000,  0.0000)
   5 Na     0.000000    4.193200    0.000000    ( 0.0000,  0.0000,  0.0000)
   6 Na     4.193200    0.000000    0.000000    ( 0.0000,  0.0000,  0.0000)
   7 Na     2.096600    2.096600    2.096600    ( 0.0000,  0.0000,  0.0000)

Unit cell:
           periodic     x           y           z      points  spacing
  1. axis:    yes   -4.193200    4.193200    4.193200    40     0.1483
  2. axis:    yes    4.193200   -4.193200    4.193200    40     0.1483
  3. axis:    yes    4.193200    4.193200   -4.193200    40     0.1483

  Lengths:   7.262835   7.262835   7.262835
  Angles:  109.471221 109.471221 109.471221

Effective grid spacing dv^(1/3) = 0.1664

     iter     time        total  log10-change:
                         energy   eigst   dens
iter:   1 21:46:07   -10.422103   -4.21
iter:   2 21:46:33   -10.422078   -6.17  -2.34
iter:   3 21:47:01   -10.421981c  -5.78  -2.38
iter:   4 21:47:29   -10.421983c  -7.12  -3.03
iter:   5 21:47:57   -10.421981c  -7.46c -3.04
iter:   6 21:48:24   -10.421982c  -8.14c -4.03c

Converged after 6 iterations.

Dipole moment: (0.048076, -0.048076, 0.048051) |e|*Ang

Energy contributions relative to reference atoms: (reference = -35348.883966)

Kinetic:        +17.065464
Potential:      -15.003962
External:        +0.000000
XC:             -12.414647
Entropy (-ST):   -0.126944
Local:           -0.005365
SIC:             +0.000000
--------------------------
Free energy:    -10.485453
Extrapolated:   -10.421982

Showing only first 2 kpts
 Kpt  Band  Eigenvalues  Occupancy
  0     2     -1.43271    2.00000
  0     3     -0.37169    1.98839
  0     4     -0.36972    1.98816
  0     5     -0.36775    1.98793

  1     2     -1.23389    2.00000
  1     3     -0.17271    1.91808
  1     4      0.34997    0.22341
  1     5      0.35277    0.21791


Fermi level: 0.14262

No gap
No difference between direct/indirect transitions

Forces in eV/Ang:
  0 Na    0.00456   -0.00456    0.00452
  1 Na   -0.00077    0.00077    0.00203
  2 Na   -0.00350    0.00350   -0.00353
  3 Na   -0.00016    0.00016   -0.00125
  4 Na    0.00201    0.00073   -0.00075
  5 Na   -0.00016    0.00130   -0.00015
  6 Na   -0.00130    0.00015   -0.00015
  7 Na   -0.00073   -0.00201   -0.00075

System changes: positions 

Initializing position-dependent things.

Density initialized from wave functions
                                   
                                   
                                   
                                   
                                   
                                   
             Na                    
                                   
         Na         Na             
                Na                 
                 Na                
             Na         Na         
                                   
                    Na             
                                   
                                   
                                   
                                   
                                   
                                   

Positions:
   0 Na     0.005774    0.005774   -0.005774    ( 0.0000,  0.0000,  0.0000)
   1 Na    -2.096600    2.096600    2.096600    ( 0.0000,  0.0000,  0.0000)
   2 Na     2.096600   -2.096600    2.096600    ( 0.0000,  0.0000,  0.0000)
   3 Na     0.000000    0.000000    4.193200    ( 0.0000,  0.0000,  0.0000)
   4 Na     2.096600    2.096600   -2.096600    ( 0.0000,  0.0000,  0.0000)
   5 Na     0.000000    4.193200    0.000000    ( 0.0000,  0.0000,  0.0000)
   6 Na     4.193200    0.000000    0.000000    ( 0.0000,  0.0000,  0.0000)
   7 Na     2.096600    2.096600    2.096600    ( 0.0000,  0.0000,  0.0000)

Unit cell:
           periodic     x           y           z      points  spacing
  1. axis:    yes   -4.193200    4.193200    4.193200    40     0.1483
  2. axis:    yes    4.193200   -4.193200    4.193200    40     0.1483
  3. axis:    yes    4.193200    4.193200   -4.193200    40     0.1483

  Lengths:   7.262835   7.262835   7.262835
  Angles:  109.471221 109.471221 109.471221

Effective grid spacing dv^(1/3) = 0.1664

     iter     time        total  log10-change:
                         energy   eigst   dens
iter:   1 21:48:58   -10.422019   -4.68
iter:   2 21:49:25   -10.422011   -6.66  -2.64
iter:   3 21:49:51   -10.421981c  -6.29  -2.69
iter:   4 21:50:15   -10.421981c  -7.72c -3.28
iter:   5 21:50:40   -10.421981c  -8.08c -3.32
iter:   6 21:51:05   -10.421981c  -8.67c -4.24c

Converged after 6 iterations.

Dipole moment: (-0.048027, -0.047604, 0.047602) |e|*Ang

Energy contributions relative to reference atoms: (reference = -35348.883966)

Kinetic:        +17.065459
Potential:      -15.003958
External:        +0.000000
XC:             -12.414645
Entropy (-ST):   -0.126944
Local:           -0.005366
SIC:             +0.000000
--------------------------
Free energy:    -10.485453
Extrapolated:   -10.421981

Showing only first 2 kpts
 Kpt  Band  Eigenvalues  Occupancy
  0     2     -1.43285    2.00000
  0     3     -0.37155    1.98837
  0     4     -0.36972    1.98816
  0     5     -0.36789    1.98794

  1     2     -1.23389    2.00000
  1     3     -0.17272    1.91809
  1     4      0.35131    0.22076
  1     5      0.35143    0.22053


Fermi level: 0.14262

No gap
No difference between direct/indirect transitions

Forces in eV/Ang:
  0 Na   -0.00446   -0.00408    0.00408
  1 Na    0.00074   -0.00142   -0.00129
  2 Na   -0.00127    0.00059   -0.00060
  3 Na    0.00015   -0.00000   -0.00033
  4 Na    0.00275    0.00329   -0.00330
  5 Na    0.00015    0.00033    0.00000
  6 Na    0.00123   -0.00000    0.00000
  7 Na    0.00075    0.00129    0.00142

System changes: positions 

Initializing position-dependent things.

Density initialized from wave functions
                                   
                                   
                                   
                                   
                                   
                                   
             Na                    
                                   
         Na         Na             
                Na                 
                 Na                
             Na         Na         
                                   
                    Na             
                                   
                                   
                                   
                                   
                                   
                                   

Positions:
   0 Na    -0.005774   -0.005774    0.005774    ( 0.0000,  0.0000,  0.0000)
   1 Na    -2.096600    2.096600    2.096600    ( 0.0000,  0.0000,  0.0000)
   2 Na     2.096600   -2.096600    2.096600    ( 0.0000,  0.0000,  0.0000)
   3 Na     0.000000    0.000000    4.193200    ( 0.0000,  0.0000,  0.0000)
   4 Na     2.096600    2.096600   -2.096600    ( 0.0000,  0.0000,  0.0000)
   5 Na     0.000000    4.193200    0.000000    ( 0.0000,  0.0000,  0.0000)
   6 Na     4.193200    0.000000    0.000000    ( 0.0000,  0.0000,  0.0000)
   7 Na     2.096600    2.096600    2.096600    ( 0.0000,  0.0000,  0.0000)

Unit cell:
           periodic     x           y           z      points  spacing
  1. axis:    yes   -4.193200    4.193200    4.193200    40     0.1483
  2. axis:    yes    4.193200   -4.193200    4.193200    40     0.1483
  3. axis:    yes    4.193200    4.193200   -4.193200    40     0.1483

  Lengths:   7.262835   7.262835   7.262835
  Angles:  109.471221 109.471221 109.471221

Effective grid spacing dv^(1/3) = 0.1664

     iter     time        total  log10-change:
                         energy   eigst   dens
iter:   1 21:51:43   -10.422103   -4.21
iter:   2 21:52:18   -10.422077   -6.17  -2.34
iter:   3 21:52:50   -10.421981c  -5.78  -2.38
iter:   4 21:53:25   -10.421983c  -7.12  -3.03
iter:   5 21:53:55   -10.421981c  -7.46c -3.04
iter:   6 21:54:26   -10.421982c  -8.13c -4.03c

Converged after 6 iterations.

Dipole moment: (0.048056, 0.048082, -0.048082) |e|*Ang

Energy contributions relative to reference atoms: (reference = -35348.883966)

Kinetic:        +17.065464
Potential:      -15.003962
External:        +0.000000
XC:             -12.414647
Entropy (-ST):   -0.126944
Local:           -0.005365
SIC:             +0.000000
--------------------------
Free energy:    -10.485453
Extrapolated:   -10.421982

Showing only first 2 kpts
 Kpt  Band  Eigenvalues  Occupancy
  0     2     -1.43271    2.00000
  0     3     -0.37170    1.98839
  0     4     -0.36972    1.98816
  0     5     -0.36775    1.98793

  1     2     -1.23388    2.00000
  1     3     -0.17272    1.91809
  1     4      0.35136    0.22065
  1     5      0.35138    0.22063


Fermi level: 0.14262

No gap
No difference between direct/indirect transitions

Forces in eV/Ang:
  0 Na    0.00453    0.00457   -0.00457
  1 Na   -0.00075    0.00202    0.00073
  2 Na    0.00203   -0.00077    0.00077
  3 Na   -0.00015   -0.00016    0.00131
  4 Na   -0.00354   -0.00351    0.00351
  5 Na   -0.00015   -0.00131    0.00016
  6 Na   -0.00126   -0.00016    0.00015
  7 Na   -0.00075   -0.00073   -0.00202

Timing:                                      incl.     excl.
-------------------------------------------------------------------
Density initialized from wave functions:    11.230    11.230   1.0% |
 Symmetrize density:                         0.000     0.000   0.0% |
Forces:                                     17.295    17.295   1.5% ||
Hamiltonian:                                 0.731     0.006   0.0% |
 Atomic:                                     0.307     0.002   0.0% |
  XC Correction:                             0.305     0.305   0.0% |
 Calculate atomic Hamiltonians:              0.055     0.055   0.0% |
 Communicate:                                0.000     0.000   0.0% |
 Initialize Hamiltonian:                     0.000     0.000   0.0% |
 Poisson:                                    0.002     0.002   0.0% |
 XC 3D grid:                                 0.362     0.362   0.0% |
LCAO initialization:                        15.461     0.006   0.0% |
 LCAO eigensolver:                           0.833     0.003   0.0% |
  Calculate projections:                     0.008     0.008   0.0% |
  DenseAtomicCorrection:                     0.031     0.031   0.0% |
  Distribute overlap matrix:                 0.002     0.002   0.0% |
  Orbital Layouts:                           0.651     0.651   0.1% |
  Potential matrix:                          0.095     0.095   0.0% |
  Sum over cells:                            0.044     0.044   0.0% |
 LCAO to grid:                              13.208    13.208   1.1% |
 Set positions (LCAO WFS):                   1.413     0.166   0.0% |
  Basic WFS set positions:                   0.000     0.000   0.0% |
  Basis functions set positions:             0.000     0.000   0.0% |
  P tci:                                     0.796     0.796   0.1% |
  ST tci:                                    0.449     0.449   0.0% |
  mktci:                                     0.003     0.003   0.0% |
PWDescriptor:                                0.352     0.352   0.0% |
Redistribute:                                0.118     0.118   0.0% |
SCF-cycle:                                1098.828     0.504   0.0% |
 Davidson:                                1007.997   172.404  14.9% |-----|
  Apply H:                                 183.378   180.915  15.7% |-----|
   HMM T:                                    2.463     2.463   0.2% |
  Subspace diag:                           194.188     0.331   0.0% |
   calc_h_matrix:                          176.575     5.443   0.5% |
    Apply H:                               171.133   169.338  14.6% |-----|
     HMM T:                                  1.794     1.794   0.2% |
   diagonalize:                              4.307     4.307   0.4% |
   rotate_psi:                              12.975    12.975   1.1% |
  calc. matrices:                          403.147    56.426   4.9% |-|
   Apply H:                                346.721   342.314  29.6% |-----------|
    HMM T:                                   4.407     4.407   0.4% |
  diagonalize:                              30.553    30.553   2.6% ||
  rotate_psi:                               24.328    24.328   2.1% ||
 Density:                                   76.818     0.000   0.0% |
  Atomic density matrices:                   0.481     0.481   0.0% |
  Mix:                                       0.469     0.469   0.0% |
  Multipole moments:                         0.002     0.002   0.0% |
  Pseudo density:                           75.866    75.866   6.6% |--|
   Symmetrize density:                       0.000     0.000   0.0% |
 Hamiltonian:                                4.127     0.025   0.0% |
  Atomic:                                    1.739     0.009   0.0% |
   XC Correction:                            1.731     1.731   0.1% |
  Calculate atomic Hamiltonians:             0.322     0.322   0.0% |
  Communicate:                               0.000     0.000   0.0% |
  Poisson:                                   0.009     0.009   0.0% |
  XC 3D grid:                                2.030     2.030   0.2% |
 Orthonormalize:                             9.381     0.052   0.0% |
  calc_s_matrix:                             0.870     0.870   0.1% |
  inverse-cholesky:                          0.063     0.063   0.0% |
  projections:                               7.676     7.676   0.7% |
  rotate_psi_s:                              0.720     0.720   0.1% |
Set symmetry:                                0.000     0.000   0.0% |
Other:                                      11.932    11.932   1.0% |
-------------------------------------------------------------------
Total:                                              1155.947 100.0%

Memory usage: 2.45 GiB
Date: Tue Feb 25 21:54:30 2025
