
  ___ ___ ___ _ _ _  
 |   |   |_  | | | | 
 | | | | | . | | | | 
 |__ |  _|___|_____|  25.1.0
 |___|_|             

User:   zoe@Zoes-MacBook-Air.local
Date:   Sun Feb 23 10:16:04 2025
Arch:   arm64
Pid:    9548
CWD:    /Users/zoe/Documents/GitHub/TIF320_Computitional_Materials_and_Molecular_Physics
Python: 3.12.2
gpaw:   /opt/anaconda3/envs/tif320env/lib/python3.12/site-packages/gpaw
_gpaw:  /opt/anaconda3/envs/tif320env/lib/python3.12/site-packages/
        _gpaw.cpython-312-darwin.so
ase:    /opt/anaconda3/envs/tif320env/lib/python3.12/site-packages/ase (version 3.24.0)
numpy:  /opt/anaconda3/envs/tif320env/lib/python3.12/site-packages/numpy (version 2.0.1)
scipy:  /opt/anaconda3/envs/tif320env/lib/python3.12/site-packages/scipy (version 1.15.1)
libxc:  7.0.0
units:  Angstrom and eV
cores: 1
OpenMP: False
OMP_NUM_THREADS: 1

Input parameters:
  kpts: [6 6 6]
  mode: {ecut: 600.0,
         name: pw}
  setups: {Na: 1}
  xc: PBE

System changes: positions, numbers, cell, pbc, initial_charges, initial_magmoms 

Initialize ...

species:
  Na:
    name: Sodium
    id: 8dbce52902f3add137ce7d12431c9cac
    Z: 11.0
    valence: 1
    core: 10
    charge: 0.0
    file: /opt/anaconda3/envs/tif320env/gpaw-setups/gpaw-setups-24.11.0/Na.1.PBE.gz
    compensation charges: {type: gauss,
                           rc: 0.43,
                           lmax: 2}
    cutoffs: {filter: 2.36,
              core: 3.60}
    projectors:
      #              energy  rcut
      - 3s(1.00)    -2.744   1.349
      - 3p(0.00)    -0.743   1.349
      -  s          24.468   1.349
  
    # Using partial waves for Na as LCAO basis

Reference energy: -4418.610496  # eV

Spin-paired calculation

Convergence criteria:
 Maximum [total energy] change in last 3 cyles: 0.0005 eV / valence electron
 Maximum integral of absolute [dens]ity change: 0.0001 electrons / valence electron
 Maximum integral of absolute [eigenst]ate change: 4e-08 eV^2 / valence electron
 Maximum number of scf [iter]ations: 333
 (Square brackets indicate name in SCF output, whereas a 'c' in
 the SCF output indicates the quantity has converged.)

Symmetries present (total): 48

  ( 1  1  1)  ( 1  1  1)  ( 1  1  1)  ( 1  1  1)  ( 1  1  1)  ( 1  1  1)
  ( 0  0 -1)  ( 0  0 -1)  ( 0 -1  0)  ( 0 -1  0)  (-1  0  0)  (-1  0  0)
  ( 0 -1  0)  (-1  0  0)  ( 0  0 -1)  (-1  0  0)  ( 0  0 -1)  ( 0 -1  0)

  ( 1  0  0)  ( 1  0  0)  ( 1  0  0)  ( 1  0  0)  ( 1  0  0)  ( 1  0  0)
  ( 0  1  0)  ( 0  1  0)  ( 0  0  1)  ( 0  0  1)  (-1 -1 -1)  (-1 -1 -1)
  ( 0  0  1)  (-1 -1 -1)  ( 0  1  0)  (-1 -1 -1)  ( 0  1  0)  ( 0  0  1)

  ( 0  1  0)  ( 0  1  0)  ( 0  1  0)  ( 0  1  0)  ( 0  1  0)  ( 0  1  0)
  ( 1  0  0)  ( 1  0  0)  ( 0  0  1)  ( 0  0  1)  (-1 -1 -1)  (-1 -1 -1)
  ( 0  0  1)  (-1 -1 -1)  ( 1  0  0)  (-1 -1 -1)  ( 1  0  0)  ( 0  0  1)

  ( 0  0  1)  ( 0  0  1)  ( 0  0  1)  ( 0  0  1)  ( 0  0  1)  ( 0  0  1)
  ( 1  0  0)  ( 1  0  0)  ( 0  1  0)  ( 0  1  0)  (-1 -1 -1)  (-1 -1 -1)
  ( 0  1  0)  (-1 -1 -1)  ( 1  0  0)  (-1 -1 -1)  ( 1  0  0)  ( 0  1  0)

  ( 0  0 -1)  ( 0  0 -1)  ( 0  0 -1)  ( 0  0 -1)  ( 0  0 -1)  ( 0  0 -1)
  ( 1  1  1)  ( 1  1  1)  ( 0 -1  0)  ( 0 -1  0)  (-1  0  0)  (-1  0  0)
  ( 0 -1  0)  (-1  0  0)  ( 1  1  1)  (-1  0  0)  ( 1  1  1)  ( 0 -1  0)

  ( 0 -1  0)  ( 0 -1  0)  ( 0 -1  0)  ( 0 -1  0)  ( 0 -1  0)  ( 0 -1  0)
  ( 1  1  1)  ( 1  1  1)  ( 0  0 -1)  ( 0  0 -1)  (-1  0  0)  (-1  0  0)
  ( 0  0 -1)  (-1  0  0)  ( 1  1  1)  (-1  0  0)  ( 1  1  1)  ( 0  0 -1)

  (-1  0  0)  (-1  0  0)  (-1  0  0)  (-1  0  0)  (-1  0  0)  (-1  0  0)
  ( 1  1  1)  ( 1  1  1)  ( 0  0 -1)  ( 0  0 -1)  ( 0 -1  0)  ( 0 -1  0)
  ( 0  0 -1)  ( 0 -1  0)  ( 1  1  1)  ( 0 -1  0)  ( 1  1  1)  ( 0  0 -1)

  (-1 -1 -1)  (-1 -1 -1)  (-1 -1 -1)  (-1 -1 -1)  (-1 -1 -1)  (-1 -1 -1)
  ( 1  0  0)  ( 1  0  0)  ( 0  1  0)  ( 0  1  0)  ( 0  0  1)  ( 0  0  1)
  ( 0  1  0)  ( 0  0  1)  ( 1  0  0)  ( 0  0  1)  ( 1  0  0)  ( 0  1  0)

216 k-points: 6 x 6 x 6 Monkhorst-Pack grid
14 k-points in the irreducible part of the Brillouin zone
       k-points in crystal coordinates                weights
   0:     0.08333333    0.08333333   -0.08333333          6/216
   1:     0.25000000   -0.08333333   -0.08333333          8/216
   2:     0.25000000    0.08333333   -0.08333333         24/216
   3:     0.25000000    0.25000000   -0.25000000          6/216
   4:     0.25000000    0.25000000    0.25000000          2/216
   5:     0.41666667   -0.08333333   -0.08333333         24/216
   6:     0.41666667    0.08333333   -0.25000000         24/216
   7:     0.41666667    0.08333333   -0.08333333         24/216
   8:     0.41666667    0.25000000   -0.25000000         24/216
   9:     0.41666667    0.25000000    0.25000000         24/216
          ...
  13:     0.41666667    0.41666667    0.41666667          8/216

Wave functions: Plane wave expansion
  Cutoff energy: 600.000 eV
  Number of coefficients (min, max): 1304, 1333
  Pulay-stress correction: 0.000000 eV/Ang^3 (de/decut=0.000000)
  Using Numpy's FFT
  ScaLapack parameters: grid=1x1, blocksize=None
  Wavefunction extrapolation:
    Improved wavefunction reuse through dual PAW basis 

Occupation numbers: Fermi-Dirac:
  width: 0.1000  # eV
 

Eigensolver
   Davidson(niter=2) 

Densities:
  Coarse grid: 21*21*21 grid
  Fine grid: 42*42*42 grid
  Total Charge: 0.000000 

Density mixing:
  Method: separate
  Backend: pulay
  Linear mixing parameter: 0.05
  old densities: 5
  Damping of long wavelength oscillations: 50 

Hamiltonian:
  XC and Coulomb potentials evaluated on a 42*42*42 grid
  Using the PBE Exchange-Correlation functional
  External potential:
    NoExternalPotential
 

XC parameters: PBE with 2 nearest neighbor stencil

Memory estimate:
  Process memory now: 179.62 MiB
  Calculator: 8.12 MiB
    Density: 3.94 MiB
      Arrays: 1.84 MiB
      Localized functions: 1.39 MiB
      Mixer: 0.71 MiB
    Hamiltonian: 1.23 MiB
      Arrays: 1.20 MiB
      XC: 0.00 MiB
      Poisson: 0.00 MiB
      vbar: 0.03 MiB
    Wavefunctions: 2.95 MiB
      Arrays psit_nG: 1.14 MiB
      Eigensolver: 0.19 MiB
      Projections: 0.00 MiB
      Projectors: 0.98 MiB
      PW-descriptor: 0.64 MiB

Total number of cores used: 1

Number of atoms: 1
Number of atomic orbitals: 4
Number of bands in calculation: 4
Number of valence electrons: 1
Bands to converge: occupied

... initialized

Initializing position-dependent things.

Density initialized from atomic densities
Creating initial wave functions:
  4 bands from LCAO basis set

                
                
                
       Na       
                
                
                
                

Positions:
   0 Na     0.000000    0.000000    0.000000    ( 0.0000,  0.0000,  0.0000)

Unit cell:
           periodic     x           y           z      points  spacing
  1. axis:    yes   -2.145000    2.145000    2.145000    21     0.1445
  2. axis:    yes    2.145000   -2.145000    2.145000    21     0.1445
  3. axis:    yes    2.145000    2.145000   -2.145000    21     0.1445

  Lengths:   3.715249   3.715249   3.715249
  Angles:  109.471221 109.471221 109.471221

Effective grid spacing dv^(1/3) = 0.1621

     iter     time        total  log10-change:
                         energy   eigst   dens
iter:   1 10:16:04    -1.319800
iter:   2 10:16:04    -1.319695   -3.69  -0.85
iter:   3 10:16:04    -1.318236   -3.64  -0.87
iter:   4 10:16:04    -1.318126   -6.02  -1.68
iter:   5 10:16:04    -1.318127c  -7.86c -2.65
iter:   6 10:16:04    -1.318112c  -6.04  -2.68
iter:   7 10:16:04    -1.318112c  -7.87c -3.76
iter:   8 10:16:05    -1.318112c  -9.38c -3.67
iter:   9 10:16:05    -1.318112c  -8.83c -3.91
iter:  10 10:16:05    -1.318112c -10.60c -4.82c

Converged after 10 iterations.

Dipole moment: (0.000000, -0.000000, -0.000000) |e|*Ang

Energy contributions relative to reference atoms: (reference = -4418.610496)

Kinetic:         +1.481038
Potential:       -1.390925
External:        +0.000000
XC:              -1.400051
Entropy (-ST):   -0.014973
Local:           -0.000687
SIC:             +0.000000
--------------------------
Free energy:     -1.325598
Extrapolated:    -1.318112

Showing only first 2 kpts
 Kpt  Band  Eigenvalues  Occupancy
  0     0     -2.96714    2.00000
  0     1      9.86446    0.00000

  1     0     -2.50414    2.00000
  1     1      7.83021    0.00000


Fermi level: -0.16122

No gap
No difference between direct/indirect transitions
Timing:                              incl.     excl.
-----------------------------------------------------------
Hamiltonian:                         0.016     0.000   0.0% |
 Atomic:                             0.006     0.000   0.0% |
  XC Correction:                     0.006     0.006   0.6% |
 Calculate atomic Hamiltonians:      0.000     0.000   0.0% |
 Communicate:                        0.000     0.000   0.0% |
 Initialize Hamiltonian:             0.000     0.000   0.0% |
 Poisson:                            0.000     0.000   0.0% |
 XC 3D grid:                         0.009     0.009   0.9% |
LCAO initialization:                 0.046     0.003   0.3% |
 LCAO eigensolver:                   0.015     0.000   0.0% |
  Calculate projections:             0.000     0.000   0.0% |
  DenseAtomicCorrection:             0.000     0.000   0.0% |
  Distribute overlap matrix:         0.000     0.000   0.0% |
  Orbital Layouts:                   0.002     0.002   0.2% |
  Potential matrix:                  0.012     0.012   1.1% |
  Sum over cells:                    0.001     0.001   0.1% |
 LCAO to grid:                       0.020     0.020   1.9% ||
 Set positions (LCAO WFS):           0.008     0.001   0.1% |
  Basic WFS set positions:           0.000     0.000   0.0% |
  Basis functions set positions:     0.000     0.000   0.0% |
  P tci:                             0.002     0.002   0.2% |
  ST tci:                            0.003     0.003   0.3% |
  mktci:                             0.002     0.002   0.2% |
PWDescriptor:                        0.001     0.001   0.1% |
SCF-cycle:                           0.916     0.005   0.5% |
 Davidson:                           0.682     0.042   4.1% |-|
  Apply H:                           0.124     0.123  12.1% |----|
   HMM T:                            0.001     0.001   0.1% |
  Subspace diag:                     0.150     0.001   0.1% |
   calc_h_matrix:                    0.133     0.007   0.7% |
    Apply H:                         0.126     0.124  12.2% |----|
     HMM T:                          0.002     0.002   0.2% |
   diagonalize:                      0.012     0.012   1.2% |
   rotate_psi:                       0.004     0.004   0.4% |
  calc. matrices:                    0.280     0.034   3.4% ||
   Apply H:                          0.246     0.243  23.9% |---------|
    HMM T:                           0.003     0.003   0.3% |
  diagonalize:                       0.080     0.080   7.9% |--|
  rotate_psi:                        0.006     0.006   0.6% |
 Density:                            0.084     0.000   0.0% |
  Atomic density matrices:           0.002     0.002   0.2% |
  Mix:                               0.011     0.011   1.1% |
  Multipole moments:                 0.000     0.000   0.0% |
  Pseudo density:                    0.071     0.058   5.7% |-|
   Symmetrize density:               0.014     0.014   1.3% ||
 Hamiltonian:                        0.142     0.001   0.1% |
  Atomic:                            0.058     0.001   0.1% |
   XC Correction:                    0.057     0.057   5.6% |-|
  Calculate atomic Hamiltonians:     0.003     0.003   0.3% |
  Communicate:                       0.000     0.000   0.0% |
  Poisson:                           0.000     0.000   0.0% |
  XC 3D grid:                        0.079     0.079   7.8% |--|
 Orthonormalize:                     0.002     0.000   0.0% |
  calc_s_matrix:                     0.001     0.001   0.1% |
  inverse-cholesky:                  0.000     0.000   0.0% |
  projections:                       0.001     0.001   0.1% |
  rotate_psi_s:                      0.000     0.000   0.0% |
Set symmetry:                        0.006     0.006   0.6% |
Other:                               0.030     0.030   2.9% ||
-----------------------------------------------------------
Total:                                         1.016 100.0%

Memory usage: 184.39 MiB
Date: Sun Feb 23 10:16:05 2025
