
  ___ ___ ___ _ _ _  
 |   |   |_  | | | | 
 | | | | | . | | | | 
 |__ |  _|___|_____|  25.1.0
 |___|_|             

User:   zoe@Zoes-MacBook-Air.local
Date:   Sun Feb 23 10:15:56 2025
Arch:   arm64
Pid:    9548
CWD:    /Users/zoe/Documents/GitHub/TIF320_Computitional_Materials_and_Molecular_Physics
Python: 3.12.2
gpaw:   /opt/anaconda3/envs/tif320env/lib/python3.12/site-packages/gpaw
_gpaw:  /opt/anaconda3/envs/tif320env/lib/python3.12/site-packages/
        _gpaw.cpython-312-darwin.so
ase:    /opt/anaconda3/envs/tif320env/lib/python3.12/site-packages/ase (version 3.24.0)
numpy:  /opt/anaconda3/envs/tif320env/lib/python3.12/site-packages/numpy (version 2.0.1)
scipy:  /opt/anaconda3/envs/tif320env/lib/python3.12/site-packages/scipy (version 1.15.1)
libxc:  7.0.0
units:  Angstrom and eV
cores: 1
OpenMP: False
OMP_NUM_THREADS: 1

Input parameters:
  kpts: [10 10 10]
  mode: {ecut: 450.00000000000006,
         name: pw}
  setups: {Na: 1}
  xc: PBE

System changes: positions, numbers, cell, pbc, initial_charges, initial_magmoms 

Initialize ...

species:
  Na:
    name: Sodium
    id: 8dbce52902f3add137ce7d12431c9cac
    Z: 11.0
    valence: 1
    core: 10
    charge: 0.0
    file: /opt/anaconda3/envs/tif320env/gpaw-setups/gpaw-setups-24.11.0/Na.1.PBE.gz
    compensation charges: {type: gauss,
                           rc: 0.43,
                           lmax: 2}
    cutoffs: {filter: 2.36,
              core: 3.60}
    projectors:
      #              energy  rcut
      - 3s(1.00)    -2.744   1.349
      - 3p(0.00)    -0.743   1.349
      -  s          24.468   1.349
  
    # Using partial waves for Na as LCAO basis

Reference energy: -4418.610496  # eV

Spin-paired calculation

Convergence criteria:
 Maximum [total energy] change in last 3 cyles: 0.0005 eV / valence electron
 Maximum integral of absolute [dens]ity change: 0.0001 electrons / valence electron
 Maximum integral of absolute [eigenst]ate change: 4e-08 eV^2 / valence electron
 Maximum number of scf [iter]ations: 333
 (Square brackets indicate name in SCF output, whereas a 'c' in
 the SCF output indicates the quantity has converged.)

Symmetries present (total): 48

  ( 1  1  1)  ( 1  1  1)  ( 1  1  1)  ( 1  1  1)  ( 1  1  1)  ( 1  1  1)
  ( 0  0 -1)  ( 0  0 -1)  ( 0 -1  0)  ( 0 -1  0)  (-1  0  0)  (-1  0  0)
  ( 0 -1  0)  (-1  0  0)  ( 0  0 -1)  (-1  0  0)  ( 0  0 -1)  ( 0 -1  0)

  ( 1  0  0)  ( 1  0  0)  ( 1  0  0)  ( 1  0  0)  ( 1  0  0)  ( 1  0  0)
  ( 0  1  0)  ( 0  1  0)  ( 0  0  1)  ( 0  0  1)  (-1 -1 -1)  (-1 -1 -1)
  ( 0  0  1)  (-1 -1 -1)  ( 0  1  0)  (-1 -1 -1)  ( 0  1  0)  ( 0  0  1)

  ( 0  1  0)  ( 0  1  0)  ( 0  1  0)  ( 0  1  0)  ( 0  1  0)  ( 0  1  0)
  ( 1  0  0)  ( 1  0  0)  ( 0  0  1)  ( 0  0  1)  (-1 -1 -1)  (-1 -1 -1)
  ( 0  0  1)  (-1 -1 -1)  ( 1  0  0)  (-1 -1 -1)  ( 1  0  0)  ( 0  0  1)

  ( 0  0  1)  ( 0  0  1)  ( 0  0  1)  ( 0  0  1)  ( 0  0  1)  ( 0  0  1)
  ( 1  0  0)  ( 1  0  0)  ( 0  1  0)  ( 0  1  0)  (-1 -1 -1)  (-1 -1 -1)
  ( 0  1  0)  (-1 -1 -1)  ( 1  0  0)  (-1 -1 -1)  ( 1  0  0)  ( 0  1  0)

  ( 0  0 -1)  ( 0  0 -1)  ( 0  0 -1)  ( 0  0 -1)  ( 0  0 -1)  ( 0  0 -1)
  ( 1  1  1)  ( 1  1  1)  ( 0 -1  0)  ( 0 -1  0)  (-1  0  0)  (-1  0  0)
  ( 0 -1  0)  (-1  0  0)  ( 1  1  1)  (-1  0  0)  ( 1  1  1)  ( 0 -1  0)

  ( 0 -1  0)  ( 0 -1  0)  ( 0 -1  0)  ( 0 -1  0)  ( 0 -1  0)  ( 0 -1  0)
  ( 1  1  1)  ( 1  1  1)  ( 0  0 -1)  ( 0  0 -1)  (-1  0  0)  (-1  0  0)
  ( 0  0 -1)  (-1  0  0)  ( 1  1  1)  (-1  0  0)  ( 1  1  1)  ( 0  0 -1)

  (-1  0  0)  (-1  0  0)  (-1  0  0)  (-1  0  0)  (-1  0  0)  (-1  0  0)
  ( 1  1  1)  ( 1  1  1)  ( 0  0 -1)  ( 0  0 -1)  ( 0 -1  0)  ( 0 -1  0)
  ( 0  0 -1)  ( 0 -1  0)  ( 1  1  1)  ( 0 -1  0)  ( 1  1  1)  ( 0  0 -1)

  (-1 -1 -1)  (-1 -1 -1)  (-1 -1 -1)  (-1 -1 -1)  (-1 -1 -1)  (-1 -1 -1)
  ( 1  0  0)  ( 1  0  0)  ( 0  1  0)  ( 0  1  0)  ( 0  0  1)  ( 0  0  1)
  ( 0  1  0)  ( 0  0  1)  ( 1  0  0)  ( 0  0  1)  ( 1  0  0)  ( 0  1  0)

1000 k-points: 10 x 10 x 10 Monkhorst-Pack grid
44 k-points in the irreducible part of the Brillouin zone
       k-points in crystal coordinates                weights
   0:     0.05000000    0.05000000   -0.05000000          6/1000
   1:     0.15000000   -0.05000000   -0.05000000          8/1000
   2:     0.15000000    0.05000000   -0.05000000         24/1000
   3:     0.15000000    0.15000000   -0.15000000          6/1000
   4:     0.25000000   -0.05000000   -0.05000000         24/1000
   5:     0.25000000    0.05000000   -0.15000000         24/1000
   6:     0.25000000    0.05000000   -0.05000000         24/1000
   7:     0.25000000    0.15000000   -0.15000000         24/1000
   8:     0.25000000    0.25000000   -0.25000000          6/1000
   9:     0.25000000    0.25000000    0.25000000          2/1000
          ...
  43:     0.45000000    0.45000000    0.45000000          8/1000

Wave functions: Plane wave expansion
  Cutoff energy: 450.000 eV
  Number of coefficients (min, max): 843, 883
  Pulay-stress correction: 0.000000 eV/Ang^3 (de/decut=0.000000)
  Using Numpy's FFT
  ScaLapack parameters: grid=1x1, blocksize=None
  Wavefunction extrapolation:
    Improved wavefunction reuse through dual PAW basis 

Occupation numbers: Fermi-Dirac:
  width: 0.1000  # eV
 

Eigensolver
   Davidson(niter=2) 

Densities:
  Coarse grid: 20*20*20 grid
  Fine grid: 40*40*40 grid
  Total Charge: 0.000000 

Density mixing:
  Method: separate
  Backend: pulay
  Linear mixing parameter: 0.05
  old densities: 5
  Damping of long wavelength oscillations: 50 

Hamiltonian:
  XC and Coulomb potentials evaluated on a 40*40*40 grid
  Using the PBE Exchange-Correlation functional
  External potential:
    NoExternalPotential
 

XC parameters: PBE with 2 nearest neighbor stencil

Memory estimate:
  Process memory now: 165.55 MiB
  Calculator: 9.58 MiB
    Density: 3.10 MiB
      Arrays: 1.59 MiB
      Localized functions: 0.91 MiB
      Mixer: 0.61 MiB
    Hamiltonian: 1.06 MiB
      Arrays: 1.04 MiB
      XC: 0.00 MiB
      Poisson: 0.00 MiB
      vbar: 0.02 MiB
    Wavefunctions: 5.42 MiB
      Arrays psit_nG: 2.37 MiB
      Eigensolver: 0.12 MiB
      Projections: 0.01 MiB
      Projectors: 2.01 MiB
      PW-descriptor: 0.90 MiB

Total number of cores used: 1

Number of atoms: 1
Number of atomic orbitals: 4
Number of bands in calculation: 4
Number of valence electrons: 1
Bands to converge: occupied

... initialized

Initializing position-dependent things.

Density initialized from atomic densities
Creating initial wave functions:
  4 bands from LCAO basis set

                
                
                
       Na       
                
                
                
                

Positions:
   0 Na     0.000000    0.000000    0.000000    ( 0.0000,  0.0000,  0.0000)

Unit cell:
           periodic     x           y           z      points  spacing
  1. axis:    yes   -2.145000    2.145000    2.145000    20     0.1517
  2. axis:    yes    2.145000   -2.145000    2.145000    20     0.1517
  3. axis:    yes    2.145000    2.145000   -2.145000    20     0.1517

  Lengths:   3.715249   3.715249   3.715249
  Angles:  109.471221 109.471221 109.471221

Effective grid spacing dv^(1/3) = 0.1702

     iter     time        total  log10-change:
                         energy   eigst   dens
iter:   1 10:15:57    -1.303064
iter:   2 10:15:57    -1.302959   -3.70  -0.85
iter:   3 10:15:57    -1.301488   -3.66  -0.87
iter:   4 10:15:57    -1.301390   -6.05  -1.70
iter:   5 10:15:58    -1.301391c  -7.82c -2.67
iter:   6 10:15:58    -1.301377c  -6.04  -2.69
iter:   7 10:15:58    -1.301377c  -7.86c -3.79
iter:   8 10:15:58    -1.301377c  -9.23c -3.68
iter:   9 10:15:59    -1.301377c  -8.92c -3.97
iter:  10 10:15:59    -1.301377c -10.83c -4.93c

Converged after 10 iterations.

Dipole moment: (0.000000, -0.000000, -0.000000) |e|*Ang

Energy contributions relative to reference atoms: (reference = -4418.610496)

Kinetic:         +1.497586
Potential:       -1.390867
External:        +0.000000
XC:              -1.400275
Entropy (-ST):   -0.014401
Local:           -0.000620
SIC:             +0.000000
--------------------------
Free energy:     -1.308577
Extrapolated:    -1.301377

Showing only first 2 kpts
 Kpt  Band  Eigenvalues  Occupancy
  0     0     -3.11593    2.00000
  0     1     10.72359    0.00000

  1     0     -2.94864    2.00000
  1     1      9.49664    0.00000


Fermi level: -0.00782

No gap
No difference between direct/indirect transitions
Timing:                              incl.     excl.
-----------------------------------------------------------
Hamiltonian:                         0.017     0.000   0.0% |
 Atomic:                             0.007     0.000   0.0% |
  XC Correction:                     0.007     0.007   0.3% |
 Calculate atomic Hamiltonians:      0.000     0.000   0.0% |
 Communicate:                        0.000     0.000   0.0% |
 Initialize Hamiltonian:             0.000     0.000   0.0% |
 Poisson:                            0.000     0.000   0.0% |
 XC 3D grid:                         0.009     0.009   0.4% |
LCAO initialization:                 0.097     0.002   0.1% |
 LCAO eigensolver:                   0.022     0.000   0.0% |
  Calculate projections:             0.000     0.000   0.0% |
  DenseAtomicCorrection:             0.001     0.001   0.0% |
  Distribute overlap matrix:         0.000     0.000   0.0% |
  Orbital Layouts:                   0.008     0.008   0.3% |
  Potential matrix:                  0.011     0.011   0.5% |
  Sum over cells:                    0.002     0.002   0.1% |
 LCAO to grid:                       0.054     0.054   2.3% ||
 Set positions (LCAO WFS):           0.019     0.002   0.1% |
  Basic WFS set positions:           0.000     0.000   0.0% |
  Basis functions set positions:     0.000     0.000   0.0% |
  P tci:                             0.005     0.005   0.2% |
  ST tci:                            0.009     0.009   0.4% |
  mktci:                             0.002     0.002   0.1% |
PWDescriptor:                        0.005     0.005   0.2% |
SCF-cycle:                           2.179     0.014   0.6% |
 Davidson:                           1.849     0.113   4.8% |-|
  Apply H:                           0.324     0.319  13.5% |----|
   HMM T:                            0.004     0.004   0.2% |
  Subspace diag:                     0.401     0.005   0.2% |
   calc_h_matrix:                    0.349     0.022   0.9% |
    Apply H:                         0.327     0.323  13.7% |----|
     HMM T:                          0.004     0.004   0.2% |
   diagonalize:                      0.038     0.038   1.6% ||
   rotate_psi:                       0.010     0.010   0.4% |
  calc. matrices:                    0.745     0.100   4.2% |-|
   Apply H:                          0.645     0.637  27.0% |----------|
    HMM T:                           0.008     0.008   0.3% |
  diagonalize:                       0.251     0.251  10.6% |---|
  rotate_psi:                        0.015     0.015   0.6% |
 Density:                            0.182     0.000   0.0% |
  Atomic density matrices:           0.003     0.003   0.1% |
  Mix:                               0.009     0.009   0.4% |
  Multipole moments:                 0.000     0.000   0.0% |
  Pseudo density:                    0.170     0.158   6.7% |--|
   Symmetrize density:               0.012     0.012   0.5% |
 Hamiltonian:                        0.131     0.001   0.1% |
  Atomic:                            0.058     0.001   0.0% |
   XC Correction:                    0.057     0.057   2.4% ||
  Calculate atomic Hamiltonians:     0.002     0.002   0.1% |
  Communicate:                       0.000     0.000   0.0% |
  Poisson:                           0.000     0.000   0.0% |
  XC 3D grid:                        0.069     0.069   2.9% ||
 Orthonormalize:                     0.003     0.000   0.0% |
  calc_s_matrix:                     0.001     0.001   0.0% |
  inverse-cholesky:                  0.000     0.000   0.0% |
  projections:                       0.001     0.001   0.1% |
  rotate_psi_s:                      0.000     0.000   0.0% |
Set symmetry:                        0.026     0.026   1.1% |
Other:                               0.033     0.033   1.4% ||
-----------------------------------------------------------
Total:                                         2.358 100.0%

Memory usage: 168.56 MiB
Date: Sun Feb 23 10:15:59 2025
