
  ___ ___ ___ _ _ _  
 |   |   |_  | | | | 
 | | | | | . | | | | 
 |__ |  _|___|_____|  25.1.0
 |___|_|             

User:   zoe@Zoes-MacBook-Air.local
Date:   Tue Feb  4 15:27:15 2025
Arch:   arm64
Pid:    79289
CWD:    /Users/zoe/Documents/Python/TIF320_Computitional_molecular_physics
Python: 3.12.2
gpaw:   /opt/anaconda3/envs/tif320env/lib/python3.12/site-packages/gpaw
_gpaw:  /opt/anaconda3/envs/tif320env/lib/python3.12/site-packages/
        _gpaw.cpython-312-darwin.so
ase:    /opt/anaconda3/envs/tif320env/lib/python3.12/site-packages/ase (version 3.24.0)
numpy:  /opt/anaconda3/envs/tif320env/lib/python3.12/site-packages/numpy (version 2.0.1)
scipy:  /opt/anaconda3/envs/tif320env/lib/python3.12/site-packages/scipy (version 1.15.1)
libxc:  7.0.0
units:  Angstrom and eV
cores: 1
OpenMP: False
OMP_NUM_THREADS: 1

Input parameters:
  mode: {ecut: 400.0,
         name: pw}
  xc: PBE

System changes: positions, numbers, cell, pbc, initial_charges, initial_magmoms 

Initialize ...

species:
  O:
    name: Oxygen
    id: 32ecd46bf208036f09c70b0ec9a88b78
    Z: 8.0
    valence: 6
    core: 2
    charge: 0.0
    file: /opt/anaconda3/envs/tif320env/gpaw-setups/gpaw-setups-24.11.0/O.PBE.gz
    compensation charges: {type: gauss,
                           rc: 0.21,
                           lmax: 2}
    cutoffs: {filter: 1.17,
              core: 0.83}
    projectors:
      #              energy  rcut
      - 2s(2.00)   -23.961   0.688
      - 2p(4.00)    -9.029   0.598
      -  s           3.251   0.688
      -  p          18.182   0.598
      -  d           0.000   0.619
  
    # Using partial waves for O as LCAO basis

  H:
    name: Hydrogen
    id: d65de229564ff8ea4db303e23b6d1ecf
    Z: 1.0
    valence: 1
    core: 0
    charge: 0.0
    file: /opt/anaconda3/envs/tif320env/gpaw-setups/gpaw-setups-24.11.0/H.PBE.gz
    compensation charges: {type: gauss,
                           rc: 0.15,
                           lmax: 2}
    cutoffs: {filter: 0.85,
              core: 0.53}
    projectors:
      #              energy  rcut
      - 1s(1.00)    -6.494   0.476
      -  s          20.717   0.476
      -  p           0.000   0.476
  
    # Using partial waves for H as LCAO basis

Reference energy: -2065.832626  # eV

Spin-paired calculation

Convergence criteria:
 Maximum [total energy] change in last 3 cyles: 0.0005 eV / valence electron
 Maximum integral of absolute [dens]ity change: 0.0001 electrons / valence electron
 Maximum integral of absolute [eigenst]ate change: 4e-08 eV^2 / valence electron
 Maximum number of scf [iter]ations: 333
 (Square brackets indicate name in SCF output, whereas a 'c' in
 the SCF output indicates the quantity has converged.)

Symmetries present (total): 4

  ( 1  0  0)  ( 1  0  0)  (-1  0  0)  (-1  0  0)
  ( 0  1  0)  ( 0 -1  0)  ( 0  1  0)  ( 0 -1  0)
  ( 0  0  1)  ( 0  0  1)  ( 0  0  1)  ( 0  0  1)

1 k-point (Gamma)
1 k-point in the irreducible part of the Brillouin zone
       k-points in crystal coordinates                weights
   0:     0.00000000    0.00000000    0.00000000          1/1

Wave functions: Plane wave expansion
  Cutoff energy: 400.000 eV
  Number of coefficients: 9315 (reduced to 4658)
  Pulay-stress correction: 0.000000 eV/Ang^3 (de/decut=0.000000)
  Using Numpy's FFT
  ScaLapack parameters: grid=1x1, blocksize=None
  Wavefunction extrapolation:
    Improved wavefunction reuse through dual PAW basis 

Occupation numbers: # Zero width 

Eigensolver
   Davidson(niter=2) 

Densities:
  Coarse grid: 40*40*40 grid
  Fine grid: 80*80*80 grid
  Total Charge: 0.000000 

Density mixing:
  Method: separate
  Backend: pulay
  Linear mixing parameter: 0.05
  old densities: 5
  Damping of long wavelength oscillations: 50 

Hamiltonian:
  XC and Coulomb potentials evaluated on a 80*80*80 grid
  Using the PBE Exchange-Correlation functional
  External potential:
    NoExternalPotential
 

XC parameters: PBE with 2 nearest neighbor stencil

Memory estimate:
  Process memory now: 635.66 MiB
  Calculator: 41.67 MiB
    Density: 29.92 MiB
      Arrays: 12.70 MiB
      Localized functions: 12.34 MiB
      Mixer: 4.88 MiB
    Hamiltonian: 8.60 MiB
      Arrays: 8.30 MiB
      XC: 0.00 MiB
      Poisson: 0.00 MiB
      vbar: 0.30 MiB
    Wavefunctions: 3.14 MiB
      Arrays psit_nG: 0.43 MiB
      Eigensolver: 0.78 MiB
      Projections: 0.00 MiB
      Projectors: 0.60 MiB
      PW-descriptor: 1.33 MiB

Total number of cores used: 1

Number of atoms: 3
Number of atomic orbitals: 6
Number of bands in calculation: 6
Number of valence electrons: 8
Bands to converge: occupied

... initialized

Initializing position-dependent things.

Density initialized from atomic densities
Creating initial wave functions:
  6 bands from LCAO basis set

      .-------------------.  
     /|                   |  
    / |                   |  
   /  |                   |  
  /   |                   |  
 *    |                   |  
 |    |                   |  
 |    |       O           |  
 |    |      H            |  
 |    |                   |  
 |    .-------------------.  
 |   /                   /   
 |  /                   /    
 | /                   /     
 |/                   /      
 *-------------------*       

Positions:
   0 O      4.000000    4.000000    4.298154    ( 0.0000,  0.0000,  0.0000)
   1 H      4.000000    4.763239    3.701846    ( 0.0000,  0.0000,  0.0000)
   2 H      4.000000    3.236761    3.701846    ( 0.0000,  0.0000,  0.0000)

Unit cell:
           periodic     x           y           z      points  spacing
  1. axis:    no     8.000000    0.000000    0.000000    40     0.2000
  2. axis:    no     0.000000    8.000000    0.000000    40     0.2000
  3. axis:    no     0.000000    0.000000    8.000000    40     0.2000

  Lengths:   8.000000   8.000000   8.000000
  Angles:   90.000000  90.000000  90.000000

Effective grid spacing dv^(1/3) = 0.2000

     iter     time        total  log10-change:
                         energy   eigst   dens
iter:   1 15:27:15   -14.012561
iter:   2 15:27:15   -13.692727   -1.27  -0.71
iter:   3 15:27:15   -12.610645   -0.73  -0.75
iter:   4 15:27:16   -12.600724   -1.75  -1.05
iter:   5 15:27:16   -12.586850   -1.63  -1.09
iter:   6 15:27:16   -12.516744   -1.47  -1.44
iter:   7 15:27:16   -12.518694   -2.46  -2.06
iter:   8 15:27:16   -12.519810c  -3.00  -1.96
iter:   9 15:27:16   -12.516430c  -3.52  -1.94
iter:  10 15:27:16   -12.515956c  -4.15  -2.14
iter:  11 15:27:16   -12.514619c  -3.70  -2.20
iter:  12 15:27:16   -12.514481c  -3.58  -2.57
iter:  13 15:27:16   -12.514460c  -4.39  -2.93
iter:  14 15:27:17   -12.514485c  -5.07  -2.97
iter:  15 15:27:17   -12.514477c  -6.73  -3.01
iter:  16 15:27:17   -12.514459c  -4.64  -3.04
iter:  17 15:27:17   -12.514448c  -5.30  -3.27
iter:  18 15:27:17   -12.514480c  -5.05  -3.49
iter:  19 15:27:17   -12.514448c  -4.98  -3.09
iter:  20 15:27:17   -12.514449c  -5.76  -4.30c
iter:  21 15:27:17   -12.514449c  -7.08  -4.00c
iter:  22 15:27:17   -12.514449c  -7.46c -4.11c

Converged after 22 iterations.

Dipole moment: (0.000000, 0.000000, -0.371736) |e|*Ang

Energy contributions relative to reference atoms: (reference = -2065.832626)

Kinetic:         +5.752071
Potential:       -6.208872
External:        +0.000000
XC:             -11.964494
Entropy (-ST):   +0.000000
Local:           -0.093154
SIC:             +0.000000
--------------------------
Free energy:    -12.514449
Extrapolated:   -12.514449

 Band  Eigenvalues  Occupancy
    0    -25.36201    2.00000
    1    -12.86882    2.00000
    2     -9.17610    2.00000
    3     -7.00137    2.00000
    4     -1.05030    0.00000
    5      1.26752    0.00000

Fermi level: -4.02583

Gap: 5.951 eV
Transition (v -> c):
  (s=0, k=0, n=3, [0.00, 0.00, 0.00]) -> (s=0, k=0, n=4, [0.00, 0.00, 0.00])
No difference between direct/indirect transitions
Timing:                              incl.     excl.
-----------------------------------------------------------
Hamiltonian:                         0.064     0.001   0.0% |
 Atomic:                             0.013     0.000   0.0% |
  XC Correction:                     0.013     0.013   0.6% |
 Calculate atomic Hamiltonians:      0.004     0.004   0.2% |
 Communicate:                        0.000     0.000   0.0% |
 Initialize Hamiltonian:             0.000     0.000   0.0% |
 Poisson:                            0.000     0.000   0.0% |
 XC 3D grid:                         0.045     0.045   1.9% ||
LCAO initialization:                 0.013     0.006   0.3% |
 LCAO eigensolver:                   0.002     0.000   0.0% |
  Calculate projections:             0.000     0.000   0.0% |
  DenseAtomicCorrection:             0.000     0.000   0.0% |
  Distribute overlap matrix:         0.000     0.000   0.0% |
  Orbital Layouts:                   0.000     0.000   0.0% |
  Potential matrix:                  0.002     0.002   0.1% |
 LCAO to grid:                       0.003     0.003   0.1% |
 Set positions (LCAO WFS):           0.002     0.000   0.0% |
  Basic WFS set positions:           0.000     0.000   0.0% |
  Basis functions set positions:     0.000     0.000   0.0% |
  P tci:                             0.001     0.001   0.0% |
  ST tci:                            0.001     0.001   0.0% |
  mktci:                             0.001     0.001   0.0% |
PWDescriptor:                        0.001     0.001   0.0% |
SCF-cycle:                           2.223     0.004   0.2% |
 Davidson:                           0.527     0.059   2.5% ||
  Apply H:                           0.103     0.102   4.3% |-|
   HMM T:                            0.001     0.001   0.0% |
  Subspace diag:                     0.123     0.001   0.0% |
   calc_h_matrix:                    0.120     0.004   0.2% |
    Apply H:                         0.115     0.111   4.7% |-|
     HMM T:                          0.004     0.004   0.2% |
   diagonalize:                      0.001     0.001   0.0% |
   rotate_psi:                       0.002     0.002   0.1% |
  calc. matrices:                    0.237     0.023   1.0% |
   Apply H:                          0.214     0.208   8.8% |---|
    HMM T:                           0.006     0.006   0.3% |
  diagonalize:                       0.002     0.002   0.1% |
  rotate_psi:                        0.003     0.003   0.1% |
 Density:                            0.317     0.000   0.0% |
  Atomic density matrices:           0.003     0.003   0.1% |
  Mix:                               0.237     0.237  10.0% |---|
  Multipole moments:                 0.001     0.001   0.0% |
  Pseudo density:                    0.076     0.057   2.4% ||
   Symmetrize density:               0.019     0.019   0.8% |
 Hamiltonian:                        1.374     0.020   0.8% |
  Atomic:                            0.284     0.004   0.2% |
   XC Correction:                    0.280     0.280  11.8% |----|
  Calculate atomic Hamiltonians:     0.109     0.109   4.6% |-|
  Communicate:                       0.000     0.000   0.0% |
  Poisson:                           0.007     0.007   0.3% |
  XC 3D grid:                        0.955     0.955  40.4% |---------------|
 Orthonormalize:                     0.001     0.000   0.0% |
  calc_s_matrix:                     0.000     0.000   0.0% |
  inverse-cholesky:                  0.000     0.000   0.0% |
  projections:                       0.000     0.000   0.0% |
  rotate_psi_s:                      0.000     0.000   0.0% |
Set symmetry:                        0.000     0.000   0.0% |
Other:                               0.062     0.062   2.6% ||
-----------------------------------------------------------
Total:                                         2.364 100.0%

Memory usage: 636.08 MiB
Date: Tue Feb  4 15:27:17 2025
