
  ___ ___ ___ _ _ _  
 |   |   |_  | | | | 
 | | | | | . | | | | 
 |__ |  _|___|_____|  25.1.0
 |___|_|             

User:   zoe@Zoes-MacBook-Air.local
Date:   Tue Feb  4 15:28:06 2025
Arch:   arm64
Pid:    79289
CWD:    /Users/zoe/Documents/Python/TIF320_Computitional_molecular_physics
Python: 3.12.2
gpaw:   /opt/anaconda3/envs/tif320env/lib/python3.12/site-packages/gpaw
_gpaw:  /opt/anaconda3/envs/tif320env/lib/python3.12/site-packages/
        _gpaw.cpython-312-darwin.so
ase:    /opt/anaconda3/envs/tif320env/lib/python3.12/site-packages/ase (version 3.24.0)
numpy:  /opt/anaconda3/envs/tif320env/lib/python3.12/site-packages/numpy (version 2.0.1)
scipy:  /opt/anaconda3/envs/tif320env/lib/python3.12/site-packages/scipy (version 1.15.1)
libxc:  7.0.0
units:  Angstrom and eV
cores: 1
OpenMP: False
OMP_NUM_THREADS: 1

Input parameters:
  mode: {ecut: 250.0,
         name: pw}

System changes: positions, numbers, cell, pbc, initial_charges, initial_magmoms 

Initialize ...

species:
  O:
    name: Oxygen
    id: 9b9d51c344dea68c822856295a461509
    Z: 8.0
    valence: 6
    core: 2
    charge: 0.0
    file: /opt/anaconda3/envs/tif320env/gpaw-setups/gpaw-setups-24.11.0/O.LDA.gz
    compensation charges: {type: gauss,
                           rc: 0.21,
                           lmax: 2}
    cutoffs: {filter: 1.17,
              core: 0.83}
    projectors:
      #              energy  rcut
      - 2s(2.00)   -23.752   0.688
      - 2p(4.00)    -9.195   0.598
      -  s           3.459   0.688
      -  p          18.016   0.598
      -  d           0.000   0.619
  
    # Using partial waves for O as LCAO basis

  H:
    name: Hydrogen
    id: 4766778ce56282eaa64abeb28b7c1de3
    Z: 1.0
    valence: 1
    core: 0
    charge: 0.0
    file: /opt/anaconda3/envs/tif320env/gpaw-setups/gpaw-setups-24.11.0/H.LDA.gz
    compensation charges: {type: gauss,
                           rc: 0.15,
                           lmax: 2}
    cutoffs: {filter: 0.85,
              core: 0.53}
    projectors:
      #              energy  rcut
      - 1s(1.00)    -6.353   0.476
      -  s          20.858   0.476
      -  p           0.000   0.476
  
    # Using partial waves for H as LCAO basis

Reference energy: -2052.165985  # eV

Spin-paired calculation

Convergence criteria:
 Maximum [total energy] change in last 3 cyles: 0.0005 eV / valence electron
 Maximum integral of absolute [dens]ity change: 0.0001 electrons / valence electron
 Maximum integral of absolute [eigenst]ate change: 4e-08 eV^2 / valence electron
 Maximum number of scf [iter]ations: 333
 (Square brackets indicate name in SCF output, whereas a 'c' in
 the SCF output indicates the quantity has converged.)

Symmetries present (total): 4

  ( 1  0  0)  ( 1  0  0)  (-1  0  0)  (-1  0  0)
  ( 0  1  0)  ( 0 -1  0)  ( 0  1  0)  ( 0 -1  0)
  ( 0  0  1)  ( 0  0  1)  ( 0  0  1)  ( 0  0  1)

1 k-point (Gamma)
1 k-point in the irreducible part of the Brillouin zone
       k-points in crystal coordinates                weights
   0:     0.00000000    0.00000000    0.00000000          1/1

Wave functions: Plane wave expansion
  Cutoff energy: 250.000 eV
  Number of coefficients: 4625 (reduced to 2313)
  Pulay-stress correction: 0.000000 eV/Ang^3 (de/decut=0.000000)
  Using Numpy's FFT
  ScaLapack parameters: grid=1x1, blocksize=None
  Wavefunction extrapolation:
    Improved wavefunction reuse through dual PAW basis 

Occupation numbers: # Zero width 

Eigensolver
   Davidson(niter=2) 

Densities:
  Coarse grid: 30*30*30 grid
  Fine grid: 60*60*60 grid
  Total Charge: 0.000000 

Density mixing:
  Method: separate
  Backend: pulay
  Linear mixing parameter: 0.05
  old densities: 5
  Damping of long wavelength oscillations: 50 

Hamiltonian:
  XC and Coulomb potentials evaluated on a 60*60*60 grid
  Using the LDA Exchange-Correlation functional
  External potential:
    NoExternalPotential
 

Memory estimate:
  Process memory now: 856.66 MiB
  Calculator: 18.64 MiB
    Density: 13.51 MiB
      Arrays: 5.36 MiB
      Localized functions: 6.10 MiB
      Mixer: 2.06 MiB
    Hamiltonian: 3.65 MiB
      Arrays: 3.50 MiB
      XC: 0.00 MiB
      Poisson: 0.00 MiB
      vbar: 0.15 MiB
    Wavefunctions: 1.47 MiB
      Arrays psit_nG: 0.21 MiB
      Eigensolver: 0.39 MiB
      Projections: 0.00 MiB
      Projectors: 0.30 MiB
      PW-descriptor: 0.57 MiB

Total number of cores used: 1

Number of atoms: 3
Number of atomic orbitals: 6
Number of bands in calculation: 6
Number of valence electrons: 8
Bands to converge: occupied

... initialized

Initializing position-dependent things.

Density initialized from atomic densities
Creating initial wave functions:
  6 bands from LCAO basis set

      .-------------------.  
     /|                   |  
    / |                   |  
   /  |                   |  
  /   |                   |  
 *    |                   |  
 |    |                   |  
 |    |       O           |  
 |    |      H            |  
 |    |                   |  
 |    .-------------------.  
 |   /                   /   
 |  /                   /    
 | /                   /     
 |/                   /      
 *-------------------*       

Positions:
   0 O      4.000000    4.000000    4.298154    ( 0.0000,  0.0000,  0.0000)
   1 H      4.000000    4.763239    3.701846    ( 0.0000,  0.0000,  0.0000)
   2 H      4.000000    3.236761    3.701846    ( 0.0000,  0.0000,  0.0000)

Unit cell:
           periodic     x           y           z      points  spacing
  1. axis:    no     8.000000    0.000000    0.000000    30     0.2667
  2. axis:    no     0.000000    8.000000    0.000000    30     0.2667
  3. axis:    no     0.000000    0.000000    8.000000    30     0.2667

  Lengths:   8.000000   8.000000   8.000000
  Angles:   90.000000  90.000000  90.000000

Effective grid spacing dv^(1/3) = 0.2667

     iter     time        total  log10-change:
                         energy   eigst   dens
iter:   1 15:28:06    -2.077124
iter:   2 15:28:06    -2.003266   -1.19  -0.70
iter:   3 15:28:06    -1.357139   -1.22  -0.73
iter:   4 15:28:06    -1.116580   -1.23  -1.00
iter:   5 15:28:06    -1.090115   -2.24  -1.66
iter:   6 15:28:07    -1.090296   -3.21  -1.90
iter:   7 15:28:07    -1.091661c  -3.69  -1.99
iter:   8 15:28:07    -1.089472c  -2.96  -2.08
iter:   9 15:28:07    -1.089522c  -4.09  -2.91
iter:  10 15:28:07    -1.089832c  -4.07  -2.84
iter:  11 15:28:07    -1.089466c  -3.75  -2.56
iter:  12 15:28:07    -1.089659c  -3.93  -3.00
iter:  13 15:28:07    -1.089440c  -4.42  -2.67
iter:  14 15:28:07    -1.089437c  -5.32  -3.21
iter:  15 15:28:07    -1.089437c  -6.06  -3.35
iter:  16 15:28:07    -1.089432c  -5.67  -3.41
iter:  17 15:28:07    -1.089432c  -6.59  -3.89
iter:  18 15:28:07    -1.089432c  -6.90  -3.92
iter:  19 15:28:07    -1.089432c  -7.66c -4.06c

Converged after 19 iterations.

Dipole moment: (0.000000, 0.000000, -0.333384) |e|*Ang

Energy contributions relative to reference atoms: (reference = -2052.165985)

Kinetic:        -31.493942
Potential:      +38.986246
External:        +0.000000
XC:              -8.668621
Entropy (-ST):   +0.000000
Local:           +0.086885
SIC:             +0.000000
--------------------------
Free energy:     -1.089432
Extrapolated:    -1.089432

 Band  Eigenvalues  Occupancy
    0    -27.36143    2.00000
    1    -12.83115    2.00000
    2     -9.43318    2.00000
    3     -6.95241    2.00000
    4     -1.14955    0.00000
    5      1.33739    0.00000

Fermi level: -4.05098

Gap: 5.803 eV
Transition (v -> c):
  (s=0, k=0, n=3, [0.00, 0.00, 0.00]) -> (s=0, k=0, n=4, [0.00, 0.00, 0.00])
No difference between direct/indirect transitions
Timing:                              incl.     excl.
-----------------------------------------------------------
Hamiltonian:                         0.014     0.000   0.0% |
 Atomic:                             0.004     0.000   0.0% |
  XC Correction:                     0.004     0.004   0.6% |
 Calculate atomic Hamiltonians:      0.002     0.002   0.3% |
 Communicate:                        0.000     0.000   0.0% |
 Initialize Hamiltonian:             0.000     0.000   0.0% |
 Poisson:                            0.000     0.000   0.0% |
 XC 3D grid:                         0.007     0.007   1.0% |
LCAO initialization:                 0.011     0.006   0.8% |
 LCAO eigensolver:                   0.001     0.000   0.0% |
  Calculate projections:             0.000     0.000   0.0% |
  DenseAtomicCorrection:             0.000     0.000   0.0% |
  Distribute overlap matrix:         0.000     0.000   0.0% |
  Orbital Layouts:                   0.000     0.000   0.0% |
  Potential matrix:                  0.001     0.001   0.1% |
 LCAO to grid:                       0.002     0.002   0.3% |
 Set positions (LCAO WFS):           0.002     0.000   0.0% |
  Basic WFS set positions:           0.000     0.000   0.0% |
  Basis functions set positions:     0.000     0.000   0.0% |
  P tci:                             0.000     0.000   0.1% |
  ST tci:                            0.001     0.001   0.1% |
  mktci:                             0.001     0.001   0.1% |
PWDescriptor:                        0.000     0.000   0.0% |
SCF-cycle:                           0.666     0.003   0.4% |
 Davidson:                           0.245     0.043   5.8% |-|
  Apply H:                           0.047     0.046   6.4% |--|
   HMM T:                            0.000     0.000   0.1% |
  Subspace diag:                     0.056     0.000   0.1% |
   calc_h_matrix:                    0.054     0.003   0.4% |
    Apply H:                         0.051     0.050   6.9% |--|
     HMM T:                          0.001     0.001   0.1% |
   diagonalize:                      0.001     0.001   0.1% |
   rotate_psi:                       0.001     0.001   0.1% |
  calc. matrices:                    0.097     0.012   1.7% ||
   Apply H:                          0.084     0.083  11.4% |----|
    HMM T:                           0.001     0.001   0.1% |
  diagonalize:                       0.002     0.002   0.2% |
  rotate_psi:                        0.001     0.001   0.2% |
 Density:                            0.145     0.000   0.0% |
  Atomic density matrices:           0.003     0.003   0.4% |
  Mix:                               0.111     0.111  15.3% |-----|
  Multipole moments:                 0.001     0.001   0.1% |
  Pseudo density:                    0.030     0.023   3.2% ||
   Symmetrize density:               0.007     0.007   1.0% |
 Hamiltonian:                        0.272     0.007   0.9% |
  Atomic:                            0.082     0.003   0.4% |
   XC Correction:                    0.079     0.079  10.8% |---|
  Calculate atomic Hamiltonians:     0.045     0.045   6.2% |-|
  Communicate:                       0.000     0.000   0.0% |
  Poisson:                           0.003     0.003   0.4% |
  XC 3D grid:                        0.136     0.136  18.7% |------|
 Orthonormalize:                     0.000     0.000   0.0% |
  calc_s_matrix:                     0.000     0.000   0.0% |
  inverse-cholesky:                  0.000     0.000   0.0% |
  projections:                       0.000     0.000   0.0% |
  rotate_psi_s:                      0.000     0.000   0.0% |
Set symmetry:                        0.000     0.000   0.1% |
Other:                               0.039     0.039   5.3% |-|
-----------------------------------------------------------
Total:                                         0.729 100.0%

Memory usage: 856.66 MiB
Date: Tue Feb  4 15:28:07 2025
