
  ___ ___ ___ _ _ _  
 |   |   |_  | | | | 
 | | | | | . | | | | 
 |__ |  _|___|_____|  25.1.0
 |___|_|             

User:   zoe@Zoes-MacBook-Air.local
Date:   Tue Feb  4 15:26:58 2025
Arch:   arm64
Pid:    79289
CWD:    /Users/zoe/Documents/Python/TIF320_Computitional_molecular_physics
Python: 3.12.2
gpaw:   /opt/anaconda3/envs/tif320env/lib/python3.12/site-packages/gpaw
_gpaw:  /opt/anaconda3/envs/tif320env/lib/python3.12/site-packages/
        _gpaw.cpython-312-darwin.so
ase:    /opt/anaconda3/envs/tif320env/lib/python3.12/site-packages/ase (version 3.24.0)
numpy:  /opt/anaconda3/envs/tif320env/lib/python3.12/site-packages/numpy (version 2.0.1)
scipy:  /opt/anaconda3/envs/tif320env/lib/python3.12/site-packages/scipy (version 1.15.1)
libxc:  7.0.0
units:  Angstrom and eV
cores: 1
OpenMP: False
OMP_NUM_THREADS: 1

Input parameters:
  h: 0.2
  mode: fd
  xc: RPBE

System changes: positions, numbers, cell, pbc, initial_charges, initial_magmoms 

Initialize ...

species:
  O:
    name: Oxygen
    id: 08071ca1eed670e7821b24b7eb4d558c
    Z: 8.0
    valence: 6
    core: 2
    charge: 0.0
    file: /opt/anaconda3/envs/tif320env/gpaw-setups/gpaw-setups-24.11.0/O.RPBE.gz
    compensation charges: {type: gauss,
                           rc: 0.21,
                           lmax: 2}
    cutoffs: {filter: 1.17,
              core: 0.83}
    projectors:
      #              energy  rcut
      - 2s(2.00)   -24.041   0.688
      - 2p(4.00)    -8.984   0.598
      -  s           3.170   0.688
      -  p          18.228   0.598
      -  d           0.000   0.619
  
    # Using partial waves for O as LCAO basis

  H:
    name: Hydrogen
    id: ea3f9156a1dc40d47a60fdce8f8bd75d
    Z: 1.0
    valence: 1
    core: 0
    charge: 0.0
    file: /opt/anaconda3/envs/tif320env/gpaw-setups/gpaw-setups-24.11.0/H.RPBE.gz
    compensation charges: {type: gauss,
                           rc: 0.15,
                           lmax: 2}
    cutoffs: {filter: 0.85,
              core: 0.53}
    projectors:
      #              energy  rcut
      - 1s(1.00)    -6.572   0.476
      -  s          20.639   0.476
      -  p           0.000   0.476
  
    # Using partial waves for H as LCAO basis

Reference energy: -2068.317066  # eV

Spin-paired calculation

Convergence criteria:
 Maximum [total energy] change in last 3 cyles: 0.0005 eV / valence electron
 Maximum integral of absolute [dens]ity change: 0.0001 electrons / valence electron
 Maximum integral of absolute [eigenst]ate change: 4e-08 eV^2 / valence electron
 Maximum number of scf [iter]ations: 333
 (Square brackets indicate name in SCF output, whereas a 'c' in
 the SCF output indicates the quantity has converged.)

Symmetries present (total): 4

  ( 1  0  0)  ( 1  0  0)  (-1  0  0)  (-1  0  0)
  ( 0  1  0)  ( 0 -1  0)  ( 0  1  0)  ( 0 -1  0)
  ( 0  0  1)  ( 0  0  1)  ( 0  0  1)  ( 0  0  1)

1 k-point (Gamma)
1 k-point in the irreducible part of the Brillouin zone
       k-points in crystal coordinates                weights
   0:     0.00000000    0.00000000    0.00000000          1/1

Wave functions: Uniform real-space grid
  Kinetic energy operator: 6*3+1=19 point O(h^6) finite-difference Laplacian
  ScaLapack parameters: grid=1x1, blocksize=None
  Wavefunction extrapolation:
    Improved wavefunction reuse through dual PAW basis 

Occupation numbers: # Zero width 

Eigensolver
   Davidson(niter=2) 

Densities:
  Coarse grid: 40*40*40 grid
  Fine grid: 80*80*80 grid
  Total Charge: 0.000000 

Density mixing:
  Method: separate
  Backend: pulay
  Linear mixing parameter: 0.25
  old densities: 3
  Damping of long wavelength oscillations: 1  # (no daming) 

Hamiltonian:
  XC and Coulomb potentials evaluated on a 80*80*80 grid
  Using the RPBE Exchange-Correlation functional
  Interpolation: tri-quintic (5. degree polynomial)
  Poisson solver: FastPoissonSolver using
    Stencil: 6*3+1=19 point O(h^6) finite-difference Laplacian
    FFT axes: []
    FST axes: [np.int64(0), np.int64(1), np.int64(2)]
 

XC parameters: RPBE with 2 nearest neighbor stencil

Memory estimate:
  Process memory now: 613.02 MiB
  Calculator: 32.03 MiB
    Density: 16.16 MiB
      Arrays: 12.19 MiB
      Localized functions: 1.25 MiB
      Mixer: 2.72 MiB
    Hamiltonian: 8.07 MiB
      Arrays: 7.98 MiB
      XC: 0.00 MiB
      Poisson: 0.00 MiB
      vbar: 0.09 MiB
    Wavefunctions: 7.80 MiB
      Arrays psit_nG: 2.72 MiB
      Eigensolver: 4.98 MiB
      Projections: 0.00 MiB
      Projectors: 0.11 MiB

Total number of cores used: 1

Number of atoms: 3
Number of atomic orbitals: 6
Number of bands in calculation: 6
Number of valence electrons: 8
Bands to converge: occupied

... initialized

Initializing position-dependent things.

Density initialized from atomic densities
Creating initial wave functions:
  6 bands from LCAO basis set

      .-------------------.  
     /|                   |  
    / |                   |  
   /  |                   |  
  /   |                   |  
 *    |                   |  
 |    |                   |  
 |    |       O           |  
 |    |      H            |  
 |    |                   |  
 |    .-------------------.  
 |   /                   /   
 |  /                   /    
 | /                   /     
 |/                   /      
 *-------------------*       

Positions:
   0 O      4.000000    4.000000    4.298154    ( 0.0000,  0.0000,  0.0000)
   1 H      4.000000    4.763239    3.701846    ( 0.0000,  0.0000,  0.0000)
   2 H      4.000000    3.236761    3.701846    ( 0.0000,  0.0000,  0.0000)

Unit cell:
           periodic     x           y           z      points  spacing
  1. axis:    no     8.000000    0.000000    0.000000    40     0.2000
  2. axis:    no     0.000000    8.000000    0.000000    40     0.2000
  3. axis:    no     0.000000    0.000000    8.000000    40     0.2000

  Lengths:   8.000000   8.000000   8.000000
  Angles:   90.000000  90.000000  90.000000

Effective grid spacing dv^(1/3) = 0.2000

     iter     time        total  log10-change:
                         energy   eigst   dens
iter:   1 15:26:59   -16.128219
iter:   2 15:26:59   -14.526495   +0.71  -0.71
iter:   3 15:26:59   -14.352137   +0.49  -0.97
iter:   4 15:26:59   -14.327436   -0.71  -1.16
iter:   5 15:26:59   -14.312209   -1.13  -1.69
iter:   6 15:26:59   -14.312069   -1.59  -2.36
iter:   7 15:26:59   -14.312111c  -2.63  -2.50
iter:   8 15:26:59   -14.312359c  -2.70  -2.58
iter:   9 15:27:00   -14.312166c  -3.23  -2.72
iter:  10 15:27:00   -14.312183c  -3.10  -3.07
iter:  11 15:27:00   -14.312142c  -3.49  -3.10
iter:  12 15:27:00   -14.312144c  -3.95  -3.81
iter:  13 15:27:00   -14.312144c  -5.08  -3.91
iter:  14 15:27:00   -14.312144c  -6.43  -4.16c
iter:  15 15:27:00   -14.312143c  -6.09  -4.36c
iter:  16 15:27:00   -14.312143c  -6.92  -4.56c
iter:  17 15:27:00   -14.312143c  -6.59  -4.72c
iter:  18 15:27:01   -14.312143c  -6.66  -4.71c
iter:  19 15:27:01   -14.312143c  -7.94c -5.15c

Converged after 19 iterations.

Dipole moment: (0.000000, -0.000000, -0.377488) |e|*Ang

Energy contributions relative to reference atoms: (reference = -2068.317066)

Kinetic:        +16.523551
Potential:      -19.169865
External:        +0.000000
XC:             -12.320204
Entropy (-ST):   +0.000000
Local:           +0.654374
SIC:             +0.000000
--------------------------
Free energy:    -14.312143
Extrapolated:   -14.312143

 Band  Eigenvalues  Occupancy
    0    -25.28440    2.00000
    1    -13.05919    2.00000
    2     -9.33423    2.00000
    3     -7.20717    2.00000
    4     -0.69081    0.00000
    5      1.27874    0.00000

Fermi level: -3.94899

Gap: 6.516 eV
Transition (v -> c):
  (s=0, k=0, n=3, [0.00, 0.00, 0.00]) -> (s=0, k=0, n=4, [0.00, 0.00, 0.00])
No difference between direct/indirect transitions
Timing:                              incl.     excl.
-----------------------------------------------------------
Hamiltonian:                         0.074     0.000   0.0% |
 Atomic:                             0.013     0.000   0.0% |
  XC Correction:                     0.013     0.013   0.6% |
 Calculate atomic Hamiltonians:      0.000     0.000   0.0% |
 Communicate:                        0.000     0.000   0.0% |
 Hartree integrate/restrict:         0.002     0.002   0.1% |
 Initialize Hamiltonian:             0.000     0.000   0.0% |
 Poisson:                            0.017     0.001   0.0% |
  Communicate from 1D:               0.002     0.002   0.1% |
  Communicate from 2D:               0.002     0.002   0.1% |
  Communicate to 1D:                 0.002     0.002   0.1% |
  Communicate to 2D:                 0.002     0.002   0.1% |
  FFT 1D:                            0.002     0.002   0.1% |
  FFT 2D:                            0.006     0.006   0.2% |
 XC 3D grid:                         0.041     0.041   1.8% ||
 vbar:                               0.000     0.000   0.0% |
LCAO initialization:                 0.010     0.006   0.2% |
 LCAO eigensolver:                   0.002     0.000   0.0% |
  Calculate projections:             0.000     0.000   0.0% |
  DenseAtomicCorrection:             0.000     0.000   0.0% |
  Distribute overlap matrix:         0.000     0.000   0.0% |
  Orbital Layouts:                   0.000     0.000   0.0% |
  Potential matrix:                  0.001     0.001   0.1% |
 LCAO to grid:                       0.001     0.001   0.1% |
 Set positions (LCAO WFS):           0.001     0.000   0.0% |
  Basic WFS set positions:           0.000     0.000   0.0% |
  Basis functions set positions:     0.000     0.000   0.0% |
  P tci:                             0.001     0.001   0.0% |
  ST tci:                            0.000     0.000   0.0% |
  mktci:                             0.000     0.000   0.0% |
SCF-cycle:                           2.075     0.004   0.2% |
 Davidson:                           0.650     0.198   8.6% |--|
  Apply hamiltonian:                 0.061     0.061   2.7% ||
  Subspace diag:                     0.100     0.000   0.0% |
   calc_h_matrix:                    0.070     0.016   0.7% |
    Apply hamiltonian:               0.054     0.054   2.4% ||
   diagonalize:                      0.001     0.001   0.0% |
   rotate_psi:                       0.028     0.028   1.2% |
  calc. matrices:                    0.232     0.124   5.4% |-|
   Apply hamiltonian:                0.107     0.107   4.7% |-|
  diagonalize:                       0.002     0.002   0.1% |
  rotate_psi:                        0.057     0.057   2.5% ||
 Density:                            0.072     0.000   0.0% |
  Atomic density matrices:           0.003     0.003   0.1% |
  Mix:                               0.046     0.046   2.0% ||
  Multipole moments:                 0.001     0.001   0.0% |
  Pseudo density:                    0.023     0.002   0.1% |
   Symmetrize density:               0.020     0.020   0.9% |
 Hamiltonian:                        1.348     0.000   0.0% |
  Atomic:                            0.248     0.003   0.1% |
   XC Correction:                    0.245     0.245  10.7% |---|
  Calculate atomic Hamiltonians:     0.005     0.005   0.2% |
  Communicate:                       0.000     0.000   0.0% |
  Hartree integrate/restrict:        0.029     0.029   1.3% ||
  Poisson:                           0.300     0.018   0.8% |
   Communicate from 1D:              0.036     0.036   1.6% ||
   Communicate from 2D:              0.035     0.035   1.5% ||
   Communicate to 1D:                0.040     0.040   1.7% ||
   Communicate to 2D:                0.036     0.036   1.6% ||
   FFT 1D:                           0.040     0.040   1.8% ||
   FFT 2D:                           0.096     0.096   4.2% |-|
  XC 3D grid:                        0.762     0.762  33.3% |------------|
  vbar:                              0.004     0.004   0.2% |
 Orthonormalize:                     0.001     0.000   0.0% |
  calc_s_matrix:                     0.001     0.001   0.0% |
  inverse-cholesky:                  0.000     0.000   0.0% |
  projections:                       0.000     0.000   0.0% |
  rotate_psi_s:                      0.000     0.000   0.0% |
Set symmetry:                        0.000     0.000   0.0% |
Other:                               0.132     0.132   5.8% |-|
-----------------------------------------------------------
Total:                                         2.292 100.0%

Memory usage: 620.81 MiB
Date: Tue Feb  4 15:27:01 2025
