
  ___ ___ ___ _ _ _  
 |   |   |_  | | | | 
 | | | | | . | | | | 
 |__ |  _|___|_____|  25.1.0
 |___|_|             

User:   zoe@Zoes-MacBook-Air.local
Date:   Tue Feb  4 15:27:25 2025
Arch:   arm64
Pid:    79289
CWD:    /Users/zoe/Documents/Python/TIF320_Computitional_molecular_physics
Python: 3.12.2
gpaw:   /opt/anaconda3/envs/tif320env/lib/python3.12/site-packages/gpaw
_gpaw:  /opt/anaconda3/envs/tif320env/lib/python3.12/site-packages/
        _gpaw.cpython-312-darwin.so
ase:    /opt/anaconda3/envs/tif320env/lib/python3.12/site-packages/ase (version 3.24.0)
numpy:  /opt/anaconda3/envs/tif320env/lib/python3.12/site-packages/numpy (version 2.0.1)
scipy:  /opt/anaconda3/envs/tif320env/lib/python3.12/site-packages/scipy (version 1.15.1)
libxc:  7.0.0
units:  Angstrom and eV
cores: 1
OpenMP: False
OMP_NUM_THREADS: 1

Input parameters:
  basis: dzp
  mode: lcao
  xc: PBE

System changes: positions, numbers, cell, pbc, initial_charges, initial_magmoms 

Initialize ...

species:
  O:
    name: Oxygen
    id: 32ecd46bf208036f09c70b0ec9a88b78
    Z: 8.0
    valence: 6
    core: 2
    charge: 0.0
    file: /opt/anaconda3/envs/tif320env/gpaw-setups/gpaw-setups-24.11.0/O.PBE.gz
    compensation charges: {type: gauss,
                           rc: 0.21,
                           lmax: 2}
    cutoffs: {filter: 1.17,
              core: 0.83}
    projectors:
      #              energy  rcut
      - 2s(2.00)   -23.961   0.688
      - 2p(4.00)    -9.029   0.598
      -  s           3.251   0.688
      -  p          18.182   0.598
      -  d           0.000   0.619
  
    # LCAO basis set for O:
    #   Name: dzp
    #   File: /opt/anaconda3/envs/tif320env/gpaw-setups/gpaw-setups-24.11.0/O.dzp.basis.gz
    #   Number of radial functions: 5
    #   Number of spherical harmonics: 13
    #     l=0, rc=4.3438 Bohr: 2s-sz confined orbital
    #     l=1, rc=5.3906 Bohr: 2p-sz confined orbital
    #     l=0, rc=2.2969 Bohr: 2s-dz split-valence wave
    #     l=1, rc=2.8906 Bohr: 2p-dz split-valence wave
    #     l=2, rc=5.3906 Bohr: d-type Gaussian polarization
    #   Number of RI-basis functions 0

  H:
    name: Hydrogen
    id: d65de229564ff8ea4db303e23b6d1ecf
    Z: 1.0
    valence: 1
    core: 0
    charge: 0.0
    file: /opt/anaconda3/envs/tif320env/gpaw-setups/gpaw-setups-24.11.0/H.PBE.gz
    compensation charges: {type: gauss,
                           rc: 0.15,
                           lmax: 2}
    cutoffs: {filter: 0.85,
              core: 0.53}
    projectors:
      #              energy  rcut
      - 1s(1.00)    -6.494   0.476
      -  s          20.717   0.476
      -  p           0.000   0.476
  
    # LCAO basis set for H:
    #   Name: dzp
    #   File: /opt/anaconda3/envs/tif320env/gpaw-setups/gpaw-setups-24.11.0/H.dzp.basis.gz
    #   Number of radial functions: 3
    #   Number of spherical harmonics: 5
    #     l=0, rc=6.4219 Bohr: 1s-sz confined orbital
    #     l=0, rc=3.6094 Bohr: 1s-dz split-valence wave
    #     l=1, rc=6.4219 Bohr: p-type Gaussian polarization
    #   Number of RI-basis functions 0

Reference energy: -2065.832626  # eV

Spin-paired calculation

Convergence criteria:
 Maximum [total energy] change in last 3 cyles: 0.0005 eV / valence electron
 Maximum integral of absolute [dens]ity change: 0.0001 electrons / valence electron
 Maximum integral of absolute [eigenst]ate change: 4e-08 eV^2 / valence electron
 Maximum number of scf [iter]ations: 333
 (Square brackets indicate name in SCF output, whereas a 'c' in
 the SCF output indicates the quantity has converged.)

Symmetries present (total): 4

  ( 1  0  0)  ( 1  0  0)  (-1  0  0)  (-1  0  0)
  ( 0  1  0)  ( 0 -1  0)  ( 0  1  0)  ( 0 -1  0)
  ( 0  0  1)  ( 0  0  1)  ( 0  0  1)  ( 0  0  1)

1 k-point (Gamma)
1 k-point in the irreducible part of the Brillouin zone
       k-points in crystal coordinates                weights
   0:     0.00000000    0.00000000    0.00000000          1/1

Wave functions: LCAO
  Diagonalizer: Serial LAPACK
  Atomic Correction: dense with blas
  Data-type: float
 

Occupation numbers: # Zero width 

Eigensolver
   LCAO using direct dense diagonalizer 

Densities:
  Coarse grid: 40*40*40 grid
  Fine grid: 80*80*80 grid
  Total Charge: 0.000000 

Density mixing:
  Method: separate
  Backend: pulay
  Linear mixing parameter: 0.25
  old densities: 3
  Damping of long wavelength oscillations: 1  # (no daming) 

Hamiltonian:
  XC and Coulomb potentials evaluated on a 80*80*80 grid
  Using the PBE Exchange-Correlation functional
  Interpolation: tri-quintic (5. degree polynomial)
  Poisson solver: FastPoissonSolver using
    Stencil: 6*3+1=19 point O(h^6) finite-difference Laplacian
    FFT axes: []
    FST axes: [np.int64(0), np.int64(1), np.int64(2)]
 

XC parameters: PBE with 2 nearest neighbor stencil

Memory estimate:
  Process memory now: 657.97 MiB
  Calculator: 26.38 MiB
    Density: 16.16 MiB
      Arrays: 12.19 MiB
      Localized functions: 1.25 MiB
      Mixer: 2.72 MiB
    Hamiltonian: 8.07 MiB
      Arrays: 7.98 MiB
      XC: 0.00 MiB
      Poisson: 0.00 MiB
      vbar: 0.09 MiB
    Wavefunctions: 2.16 MiB
      C [qnM]: 0.00 MiB
      S, T [2 x qmm]: 0.01 MiB
      P [aqMi]: 0.00 MiB
      BasisFunctions: 2.15 MiB
      Eigensolver: 0.00 MiB

Total number of cores used: 1

Number of atoms: 3
Number of atomic orbitals: 23
Number of bands in calculation: 6
Number of valence electrons: 8
Bands to converge: occupied

... initialized

Initializing position-dependent things.

Density initialized from atomic densities
      .-------------------.  
     /|                   |  
    / |                   |  
   /  |                   |  
  /   |                   |  
 *    |                   |  
 |    |                   |  
 |    |       O           |  
 |    |      H            |  
 |    |                   |  
 |    .-------------------.  
 |   /                   /   
 |  /                   /    
 | /                   /     
 |/                   /      
 *-------------------*       

Positions:
   0 O      4.000000    4.000000    4.298154    ( 0.0000,  0.0000,  0.0000)
   1 H      4.000000    4.763239    3.701846    ( 0.0000,  0.0000,  0.0000)
   2 H      4.000000    3.236761    3.701846    ( 0.0000,  0.0000,  0.0000)

Unit cell:
           periodic     x           y           z      points  spacing
  1. axis:    no     8.000000    0.000000    0.000000    40     0.2000
  2. axis:    no     0.000000    8.000000    0.000000    40     0.2000
  3. axis:    no     0.000000    0.000000    8.000000    40     0.2000

  Lengths:   8.000000   8.000000   8.000000
  Angles:   90.000000  90.000000  90.000000

Effective grid spacing dv^(1/3) = 0.2000

     iter     time        total  log10-change:
                         energy   eigst   dens
iter:   1 15:27:25   -14.249448        c
iter:   2 15:27:25   -13.280600        c -0.78
iter:   3 15:27:25   -13.100627        c -0.99
iter:   4 15:27:25   -13.054338        c -1.20
iter:   5 15:27:25   -13.053371        c -2.29
iter:   6 15:27:25   -13.053355c       c -2.86
iter:   7 15:27:25   -13.053347c       c -3.02
iter:   8 15:27:25   -13.053347c       c -3.79
iter:   9 15:27:25   -13.053347c       c -4.04c

Converged after 9 iterations.

Dipole moment: (0.000000, 0.000000, -0.367185) |e|*Ang

Energy contributions relative to reference atoms: (reference = -2065.832626)

Kinetic:        +13.850090
Potential:      -14.081839
External:        +0.000000
XC:             -13.182519
Entropy (-ST):   +0.000000
Local:           +0.360921
SIC:             +0.000000
--------------------------
Free energy:    -13.053347
Extrapolated:   -13.053347

 Band  Eigenvalues  Occupancy
    0    -24.70156    2.00000
    1    -12.57004    2.00000
    2     -8.57731    2.00000
    3     -6.41045    2.00000
    4      1.25535    0.00000
    5      3.45523    0.00000

Fermi level: -2.57755

Gap: 7.666 eV
Transition (v -> c):
  (s=0, k=0, n=3, [0.00, 0.00, 0.00]) -> (s=0, k=0, n=4, [0.00, 0.00, 0.00])
No difference between direct/indirect transitions
Timing:                              incl.     excl.
-----------------------------------------------------------
Basic WFS set positions:             0.000     0.000   0.0% |
Basis functions set positions:       0.001     0.001   0.1% |
LCAO WFS Initialize:                 0.071     0.002   0.2% |
 Hamiltonian:                        0.069     0.000   0.0% |
  Atomic:                            0.013     0.000   0.0% |
   XC Correction:                    0.013     0.013   1.4% ||
  Calculate atomic Hamiltonians:     0.000     0.000   0.0% |
  Communicate:                       0.000     0.000   0.0% |
  Hartree integrate/restrict:        0.001     0.001   0.2% |
  Initialize Hamiltonian:            0.000     0.000   0.0% |
  Poisson:                           0.015     0.001   0.1% |
   Communicate from 1D:              0.002     0.002   0.2% |
   Communicate from 2D:              0.002     0.002   0.2% |
   Communicate to 1D:                0.002     0.002   0.2% |
   Communicate to 2D:                0.002     0.002   0.2% |
   FFT 1D:                           0.002     0.002   0.2% |
   FFT 2D:                           0.005     0.005   0.5% |
  XC 3D grid:                        0.038     0.038   4.2% |-|
  vbar:                              0.000     0.000   0.0% |
P tci:                               0.002     0.002   0.2% |
SCF-cycle:                           0.669     0.001   0.1% |
 Density:                            0.054     0.000   0.0% |
  Atomic density matrices:           0.001     0.001   0.1% |
  Mix:                               0.020     0.020   2.2% ||
  Multipole moments:                 0.000     0.000   0.0% |
  Normalize:                         0.000     0.000   0.0% |
  Pseudo density:                    0.032     0.000   0.0% |
   Calculate density matrix:         0.000     0.000   0.0% |
   Construct density:                0.023     0.023   2.6% ||
   Symmetrize density:               0.009     0.009   1.0% |
 Hamiltonian:                        0.585     0.000   0.0% |
  Atomic:                            0.110     0.001   0.2% |
   XC Correction:                    0.108     0.108  11.9% |----|
  Calculate atomic Hamiltonians:     0.002     0.002   0.2% |
  Communicate:                       0.000     0.000   0.0% |
  Hartree integrate/restrict:        0.014     0.014   1.5% ||
  Poisson:                           0.137     0.008   0.9% |
   Communicate from 1D:              0.016     0.016   1.8% ||
   Communicate from 2D:              0.017     0.017   1.8% ||
   Communicate to 1D:                0.018     0.018   2.0% ||
   Communicate to 2D:                0.017     0.017   1.9% ||
   FFT 1D:                           0.018     0.018   2.0% ||
   FFT 2D:                           0.044     0.044   4.8% |-|
  XC 3D grid:                        0.320     0.320  35.2% |-------------|
  vbar:                              0.002     0.002   0.2% |
 LCAO eigensolver:                   0.028     0.000   0.0% |
  Calculate projections:             0.000     0.000   0.0% |
  DenseAtomicCorrection:             0.000     0.000   0.0% |
  Distribute overlap matrix:         0.000     0.000   0.0% |
  Orbital Layouts:                   0.001     0.001   0.1% |
  Potential matrix:                  0.027     0.027   3.0% ||
ST tci:                              0.000     0.000   0.0% |
Set symmetry:                        0.000     0.000   0.0% |
TCI: Evaluate splines:               0.032     0.032   3.5% ||
mktci:                               0.000     0.000   0.0% |
Other:                               0.133     0.133  14.7% |-----|
-----------------------------------------------------------
Total:                                         0.909 100.0%

Memory usage: 657.98 MiB
Date: Tue Feb  4 15:27:25 2025
