
  ___ ___ ___ _ _ _  
 |   |   |_  | | | | 
 | | | | | . | | | | 
 |__ |  _|___|_____|  25.1.0
 |___|_|             

User:   zoe@Zoes-MacBook-Air.local
Date:   Tue Feb  4 15:28:25 2025
Arch:   arm64
Pid:    79289
CWD:    /Users/zoe/Documents/Python/TIF320_Computitional_molecular_physics
Python: 3.12.2
gpaw:   /opt/anaconda3/envs/tif320env/lib/python3.12/site-packages/gpaw
_gpaw:  /opt/anaconda3/envs/tif320env/lib/python3.12/site-packages/
        _gpaw.cpython-312-darwin.so
ase:    /opt/anaconda3/envs/tif320env/lib/python3.12/site-packages/ase (version 3.24.0)
numpy:  /opt/anaconda3/envs/tif320env/lib/python3.12/site-packages/numpy (version 2.0.1)
scipy:  /opt/anaconda3/envs/tif320env/lib/python3.12/site-packages/scipy (version 1.15.1)
libxc:  7.0.0
units:  Angstrom and eV
cores: 1
OpenMP: False
OMP_NUM_THREADS: 1

Input parameters:
  mode: {ecut: 450.00000000000006,
         name: pw}

System changes: positions, numbers, cell, pbc, initial_charges, initial_magmoms 

Initialize ...

species:
  O:
    name: Oxygen
    id: 9b9d51c344dea68c822856295a461509
    Z: 8.0
    valence: 6
    core: 2
    charge: 0.0
    file: /opt/anaconda3/envs/tif320env/gpaw-setups/gpaw-setups-24.11.0/O.LDA.gz
    compensation charges: {type: gauss,
                           rc: 0.21,
                           lmax: 2}
    cutoffs: {filter: 1.17,
              core: 0.83}
    projectors:
      #              energy  rcut
      - 2s(2.00)   -23.752   0.688
      - 2p(4.00)    -9.195   0.598
      -  s           3.459   0.688
      -  p          18.016   0.598
      -  d           0.000   0.619
  
    # Using partial waves for O as LCAO basis

  H:
    name: Hydrogen
    id: 4766778ce56282eaa64abeb28b7c1de3
    Z: 1.0
    valence: 1
    core: 0
    charge: 0.0
    file: /opt/anaconda3/envs/tif320env/gpaw-setups/gpaw-setups-24.11.0/H.LDA.gz
    compensation charges: {type: gauss,
                           rc: 0.15,
                           lmax: 2}
    cutoffs: {filter: 0.85,
              core: 0.53}
    projectors:
      #              energy  rcut
      - 1s(1.00)    -6.353   0.476
      -  s          20.858   0.476
      -  p           0.000   0.476
  
    # Using partial waves for H as LCAO basis

Reference energy: -2052.165985  # eV

Spin-paired calculation

Convergence criteria:
 Maximum [total energy] change in last 3 cyles: 0.0005 eV / valence electron
 Maximum integral of absolute [dens]ity change: 0.0001 electrons / valence electron
 Maximum integral of absolute [eigenst]ate change: 4e-08 eV^2 / valence electron
 Maximum number of scf [iter]ations: 333
 (Square brackets indicate name in SCF output, whereas a 'c' in
 the SCF output indicates the quantity has converged.)

Symmetries present (total): 4

  ( 1  0  0)  ( 1  0  0)  (-1  0  0)  (-1  0  0)
  ( 0  1  0)  ( 0 -1  0)  ( 0  1  0)  ( 0 -1  0)
  ( 0  0  1)  ( 0  0  1)  ( 0  0  1)  ( 0  0  1)

1 k-point (Gamma)
1 k-point in the irreducible part of the Brillouin zone
       k-points in crystal coordinates                weights
   0:     0.00000000    0.00000000    0.00000000          1/1

Wave functions: Plane wave expansion
  Cutoff energy: 450.000 eV
  Number of coefficients: 11067 (reduced to 5534)
  Pulay-stress correction: 0.000000 eV/Ang^3 (de/decut=0.000000)
  Using Numpy's FFT
  ScaLapack parameters: grid=1x1, blocksize=None
  Wavefunction extrapolation:
    Improved wavefunction reuse through dual PAW basis 

Occupation numbers: # Zero width 

Eigensolver
   Davidson(niter=2) 

Densities:
  Coarse grid: 40*40*40 grid
  Fine grid: 80*80*80 grid
  Total Charge: 0.000000 

Density mixing:
  Method: separate
  Backend: pulay
  Linear mixing parameter: 0.05
  old densities: 5
  Damping of long wavelength oscillations: 50 

Hamiltonian:
  XC and Coulomb potentials evaluated on a 80*80*80 grid
  Using the LDA Exchange-Correlation functional
  External potential:
    NoExternalPotential
 

Memory estimate:
  Process memory now: 899.69 MiB
  Calculator: 44.49 MiB
    Density: 32.33 MiB
      Arrays: 12.70 MiB
      Localized functions: 14.75 MiB
      Mixer: 4.88 MiB
    Hamiltonian: 8.66 MiB
      Arrays: 8.30 MiB
      XC: 0.00 MiB
      Poisson: 0.00 MiB
      vbar: 0.36 MiB
    Wavefunctions: 3.50 MiB
      Arrays psit_nG: 0.51 MiB
      Eigensolver: 0.93 MiB
      Projections: 0.00 MiB
      Projectors: 0.72 MiB
      PW-descriptor: 1.34 MiB

Total number of cores used: 1

Number of atoms: 3
Number of atomic orbitals: 6
Number of bands in calculation: 6
Number of valence electrons: 8
Bands to converge: occupied

... initialized

Initializing position-dependent things.

Density initialized from atomic densities
Creating initial wave functions:
  6 bands from LCAO basis set

      .-------------------.  
     /|                   |  
    / |                   |  
   /  |                   |  
  /   |                   |  
 *    |                   |  
 |    |                   |  
 |    |       O           |  
 |    |      H            |  
 |    |                   |  
 |    .-------------------.  
 |   /                   /   
 |  /                   /    
 | /                   /     
 |/                   /      
 *-------------------*       

Positions:
   0 O      4.000000    4.000000    4.298154    ( 0.0000,  0.0000,  0.0000)
   1 H      4.000000    4.763239    3.701846    ( 0.0000,  0.0000,  0.0000)
   2 H      4.000000    3.236761    3.701846    ( 0.0000,  0.0000,  0.0000)

Unit cell:
           periodic     x           y           z      points  spacing
  1. axis:    no     8.000000    0.000000    0.000000    40     0.2000
  2. axis:    no     0.000000    8.000000    0.000000    40     0.2000
  3. axis:    no     0.000000    0.000000    8.000000    40     0.2000

  Lengths:   8.000000   8.000000   8.000000
  Angles:   90.000000  90.000000  90.000000

Effective grid spacing dv^(1/3) = 0.2000

     iter     time        total  log10-change:
                         energy   eigst   dens
iter:   1 15:28:25   -16.058685
iter:   2 15:28:25   -15.635786   -1.25  -0.70
iter:   3 15:28:25   -14.256149   -0.61  -0.74
iter:   4 15:28:25   -14.268129   -2.03  -1.04
iter:   5 15:28:25   -14.268466   -1.51  -1.07
iter:   6 15:28:26   -14.134804   -1.30  -1.33
iter:   7 15:28:26   -14.138156   -2.34  -2.10
iter:   8 15:28:26   -14.137764c  -2.99  -1.95
iter:   9 15:28:26   -14.136175c  -3.88  -2.03
iter:  10 15:28:26   -14.135516c  -4.27  -2.16
iter:  11 15:28:26   -14.134409c  -3.78  -2.24
iter:  12 15:28:26   -14.134273c  -3.73  -2.51
iter:  13 15:28:26   -14.134275c  -4.97  -3.26
iter:  14 15:28:26   -14.134276c  -5.86  -3.51
iter:  15 15:28:26   -14.134276c  -6.34  -3.57
iter:  16 15:28:26   -14.134276c  -6.95  -3.73
iter:  17 15:28:26   -14.134276c  -6.72  -3.81
iter:  18 15:28:26   -14.134276c  -7.99c -4.23c

Converged after 18 iterations.

Dipole moment: (0.000000, 0.000000, -0.390352) |e|*Ang

Energy contributions relative to reference atoms: (reference = -2052.165985)

Kinetic:        +11.325740
Potential:      -12.266879
External:        +0.000000
XC:             -13.155157
Entropy (-ST):   +0.000000
Local:           -0.037981
SIC:             +0.000000
--------------------------
Free energy:    -14.134276
Extrapolated:   -14.134276

 Band  Eigenvalues  Occupancy
    0    -25.03779    2.00000
    1    -12.93546    2.00000
    2     -9.22024    2.00000
    3     -7.15182    2.00000
    4     -1.01379    0.00000
    5      1.30302    0.00000

Fermi level: -4.08281

Gap: 6.138 eV
Transition (v -> c):
  (s=0, k=0, n=3, [0.00, 0.00, 0.00]) -> (s=0, k=0, n=4, [0.00, 0.00, 0.00])
No difference between direct/indirect transitions
Timing:                              incl.     excl.
-----------------------------------------------------------
Hamiltonian:                         0.029     0.001   0.1% |
 Atomic:                             0.004     0.000   0.0% |
  XC Correction:                     0.004     0.004   0.3% |
 Calculate atomic Hamiltonians:      0.006     0.006   0.5% |
 Communicate:                        0.000     0.000   0.0% |
 Initialize Hamiltonian:             0.000     0.000   0.0% |
 Poisson:                            0.000     0.000   0.0% |
 XC 3D grid:                         0.017     0.017   1.3% ||
LCAO initialization:                 0.014     0.006   0.5% |
 LCAO eigensolver:                   0.002     0.000   0.0% |
  Calculate projections:             0.000     0.000   0.0% |
  DenseAtomicCorrection:             0.000     0.000   0.0% |
  Distribute overlap matrix:         0.000     0.000   0.0% |
  Orbital Layouts:                   0.000     0.000   0.0% |
  Potential matrix:                  0.002     0.002   0.1% |
 LCAO to grid:                       0.004     0.004   0.3% |
 Set positions (LCAO WFS):           0.002     0.000   0.0% |
  Basic WFS set positions:           0.000     0.000   0.0% |
  Basis functions set positions:     0.000     0.000   0.0% |
  P tci:                             0.000     0.000   0.0% |
  ST tci:                            0.001     0.001   0.0% |
  mktci:                             0.001     0.001   0.1% |
PWDescriptor:                        0.001     0.001   0.1% |
SCF-cycle:                           1.181     0.003   0.2% |
 Davidson:                           0.421     0.059   4.6% |-|
  Apply H:                           0.079     0.078   6.1% |-|
   HMM T:                            0.001     0.001   0.0% |
  Subspace diag:                     0.095     0.000   0.0% |
   calc_h_matrix:                    0.092     0.003   0.3% |
    Apply H:                         0.088     0.087   6.8% |--|
     HMM T:                          0.001     0.001   0.1% |
   diagonalize:                      0.001     0.001   0.1% |
   rotate_psi:                       0.002     0.002   0.1% |
  calc. matrices:                    0.185     0.018   1.4% ||
   Apply H:                          0.167     0.165  12.8% |----|
    HMM T:                           0.002     0.002   0.2% |
  diagonalize:                       0.001     0.001   0.1% |
  rotate_psi:                        0.003     0.003   0.2% |
 Density:                            0.265     0.000   0.0% |
  Atomic density matrices:           0.002     0.002   0.2% |
  Mix:                               0.204     0.204  15.9% |-----|
  Multipole moments:                 0.000     0.000   0.0% |
  Pseudo density:                    0.058     0.043   3.3% ||
   Symmetrize density:               0.015     0.015   1.2% |
 Hamiltonian:                        0.491     0.013   1.0% |
  Atomic:                            0.074     0.003   0.2% |
   XC Correction:                    0.071     0.071   5.5% |-|
  Calculate atomic Hamiltonians:     0.100     0.100   7.8% |--|
  Communicate:                       0.000     0.000   0.0% |
  Poisson:                           0.007     0.007   0.6% |
  XC 3D grid:                        0.297     0.297  23.1% |--------|
 Orthonormalize:                     0.001     0.000   0.0% |
  calc_s_matrix:                     0.000     0.000   0.0% |
  inverse-cholesky:                  0.000     0.000   0.0% |
  projections:                       0.001     0.001   0.1% |
  rotate_psi_s:                      0.000     0.000   0.0% |
Set symmetry:                        0.000     0.000   0.0% |
Other:                               0.062     0.062   4.8% |-|
-----------------------------------------------------------
Total:                                         1.287 100.0%

Memory usage: 915.92 MiB
Date: Tue Feb  4 15:28:26 2025
