
  ___ ___ ___ _ _ _  
 |   |   |_  | | | | 
 | | | | | . | | | | 
 |__ |  _|___|_____|  25.1.0
 |___|_|             

User:   zoe@Zoes-MacBook-Air.local
Date:   Tue Feb  4 15:28:04 2025
Arch:   arm64
Pid:    79289
CWD:    /Users/zoe/Documents/Python/TIF320_Computitional_molecular_physics
Python: 3.12.2
gpaw:   /opt/anaconda3/envs/tif320env/lib/python3.12/site-packages/gpaw
_gpaw:  /opt/anaconda3/envs/tif320env/lib/python3.12/site-packages/
        _gpaw.cpython-312-darwin.so
ase:    /opt/anaconda3/envs/tif320env/lib/python3.12/site-packages/ase (version 3.24.0)
numpy:  /opt/anaconda3/envs/tif320env/lib/python3.12/site-packages/numpy (version 2.0.1)
scipy:  /opt/anaconda3/envs/tif320env/lib/python3.12/site-packages/scipy (version 1.15.1)
libxc:  7.0.0
units:  Angstrom and eV
cores: 1
OpenMP: False
OMP_NUM_THREADS: 1

Input parameters:
  mode: {ecut: 200.0,
         name: pw}

System changes: positions, numbers, cell, pbc, initial_charges, initial_magmoms 

Initialize ...

species:
  O:
    name: Oxygen
    id: 9b9d51c344dea68c822856295a461509
    Z: 8.0
    valence: 6
    core: 2
    charge: 0.0
    file: /opt/anaconda3/envs/tif320env/gpaw-setups/gpaw-setups-24.11.0/O.LDA.gz
    compensation charges: {type: gauss,
                           rc: 0.21,
                           lmax: 2}
    cutoffs: {filter: 1.17,
              core: 0.83}
    projectors:
      #              energy  rcut
      - 2s(2.00)   -23.752   0.688
      - 2p(4.00)    -9.195   0.598
      -  s           3.459   0.688
      -  p          18.016   0.598
      -  d           0.000   0.619
  
    # Using partial waves for O as LCAO basis

  H:
    name: Hydrogen
    id: 4766778ce56282eaa64abeb28b7c1de3
    Z: 1.0
    valence: 1
    core: 0
    charge: 0.0
    file: /opt/anaconda3/envs/tif320env/gpaw-setups/gpaw-setups-24.11.0/H.LDA.gz
    compensation charges: {type: gauss,
                           rc: 0.15,
                           lmax: 2}
    cutoffs: {filter: 0.85,
              core: 0.53}
    projectors:
      #              energy  rcut
      - 1s(1.00)    -6.353   0.476
      -  s          20.858   0.476
      -  p           0.000   0.476
  
    # Using partial waves for H as LCAO basis

Reference energy: -2052.165985  # eV

Spin-paired calculation

Convergence criteria:
 Maximum [total energy] change in last 3 cyles: 0.0005 eV / valence electron
 Maximum integral of absolute [dens]ity change: 0.0001 electrons / valence electron
 Maximum integral of absolute [eigenst]ate change: 4e-08 eV^2 / valence electron
 Maximum number of scf [iter]ations: 333
 (Square brackets indicate name in SCF output, whereas a 'c' in
 the SCF output indicates the quantity has converged.)

Symmetries present (total): 4

  ( 1  0  0)  ( 1  0  0)  (-1  0  0)  (-1  0  0)
  ( 0  1  0)  ( 0 -1  0)  ( 0  1  0)  ( 0 -1  0)
  ( 0  0  1)  ( 0  0  1)  ( 0  0  1)  ( 0  0  1)

1 k-point (Gamma)
1 k-point in the irreducible part of the Brillouin zone
       k-points in crystal coordinates                weights
   0:     0.00000000    0.00000000    0.00000000          1/1

Wave functions: Plane wave expansion
  Cutoff energy: 200.000 eV
  Number of coefficients: 3287 (reduced to 1644)
  Pulay-stress correction: 0.000000 eV/Ang^3 (de/decut=0.000000)
  Using Numpy's FFT
  ScaLapack parameters: grid=1x1, blocksize=None
  Wavefunction extrapolation:
    Improved wavefunction reuse through dual PAW basis 

Occupation numbers: # Zero width 

Eigensolver
   Davidson(niter=2) 

Densities:
  Coarse grid: 27*27*27 grid
  Fine grid: 54*54*54 grid
  Total Charge: 0.000000 

Density mixing:
  Method: separate
  Backend: pulay
  Linear mixing parameter: 0.05
  old densities: 5
  Damping of long wavelength oscillations: 50 

Hamiltonian:
  XC and Coulomb potentials evaluated on a 54*54*54 grid
  Using the LDA Exchange-Correlation functional
  External potential:
    NoExternalPotential
 

Memory estimate:
  Process memory now: 856.66 MiB
  Calculator: 13.47 MiB
    Density: 9.76 MiB
      Arrays: 3.90 MiB
      Localized functions: 4.36 MiB
      Mixer: 1.50 MiB
    Hamiltonian: 2.66 MiB
      Arrays: 2.55 MiB
      XC: 0.00 MiB
      Poisson: 0.00 MiB
      vbar: 0.11 MiB
    Wavefunctions: 1.05 MiB
      Arrays psit_nG: 0.15 MiB
      Eigensolver: 0.28 MiB
      Projections: 0.00 MiB
      Projectors: 0.21 MiB
      PW-descriptor: 0.41 MiB

Total number of cores used: 1

Number of atoms: 3
Number of atomic orbitals: 6
Number of bands in calculation: 6
Number of valence electrons: 8
Bands to converge: occupied

... initialized

Initializing position-dependent things.

Density initialized from atomic densities
Creating initial wave functions:
  6 bands from LCAO basis set

      .-------------------.  
     /|                   |  
    / |                   |  
   /  |                   |  
  /   |                   |  
 *    |                   |  
 |    |                   |  
 |    |       O           |  
 |    |      H            |  
 |    |                   |  
 |    .-------------------.  
 |   /                   /   
 |  /                   /    
 | /                   /     
 |/                   /      
 *-------------------*       

Positions:
   0 O      4.000000    4.000000    4.298154    ( 0.0000,  0.0000,  0.0000)
   1 H      4.000000    4.763239    3.701846    ( 0.0000,  0.0000,  0.0000)
   2 H      4.000000    3.236761    3.701846    ( 0.0000,  0.0000,  0.0000)

Unit cell:
           periodic     x           y           z      points  spacing
  1. axis:    no     8.000000    0.000000    0.000000    27     0.2963
  2. axis:    no     0.000000    8.000000    0.000000    27     0.2963
  3. axis:    no     0.000000    0.000000    8.000000    27     0.2963

  Lengths:   8.000000   8.000000   8.000000
  Angles:   90.000000  90.000000  90.000000

Effective grid spacing dv^(1/3) = 0.2963

     iter     time        total  log10-change:
                         energy   eigst   dens
iter:   1 15:28:04     6.718121
iter:   2 15:28:04     6.961573   -1.11  -0.68
iter:   3 15:28:04     9.054100   -0.85  -0.71
iter:   4 15:28:04     9.122309   -1.22  -0.98
iter:   5 15:28:04     9.301707   -0.89  -1.04
iter:   6 15:28:04     9.386824   -1.89  -1.52
iter:   7 15:28:04     9.385824   -3.34  -1.97
iter:   8 15:28:04     9.387185c  -3.66  -2.02
iter:   9 15:28:04     9.387724c  -3.63  -2.48
iter:  10 15:28:04     9.387726c  -5.11  -2.99
iter:  11 15:28:05     9.387690c  -4.86  -3.11
iter:  12 15:28:05     9.387733c  -5.02  -3.04
iter:  13 15:28:05     9.387728c  -5.26  -3.71
iter:  14 15:28:05     9.387731c  -5.48  -3.44
iter:  15 15:28:05     9.387732c  -6.98  -3.78
iter:  16 15:28:05     9.387732c  -6.85  -4.06c
iter:  17 15:28:05     9.387732c  -7.66c -4.16c

Converged after 17 iterations.

Dipole moment: (0.000000, 0.000000, -0.272110) |e|*Ang

Energy contributions relative to reference atoms: (reference = -2052.165985)

Kinetic:        -58.700186
Potential:      +72.570530
External:        +0.000000
XC:              -5.079875
Entropy (-ST):   +0.000000
Local:           +0.597263
SIC:             +0.000000
--------------------------
Free energy:     +9.387732
Extrapolated:    +9.387732

 Band  Eigenvalues  Occupancy
    0    -29.63816    2.00000
    1    -12.85083    2.00000
    2     -9.66429    2.00000
    3     -6.74710    2.00000
    4     -1.23975    0.00000
    5      1.39142    0.00000

Fermi level: -3.99343

Gap: 5.507 eV
Transition (v -> c):
  (s=0, k=0, n=3, [0.00, 0.00, 0.00]) -> (s=0, k=0, n=4, [0.00, 0.00, 0.00])
No difference between direct/indirect transitions
Timing:                              incl.     excl.
-----------------------------------------------------------
Hamiltonian:                         0.012     0.000   0.1% |
 Atomic:                             0.004     0.000   0.0% |
  XC Correction:                     0.004     0.004   0.9% |
 Calculate atomic Hamiltonians:      0.002     0.002   0.3% |
 Communicate:                        0.000     0.000   0.0% |
 Initialize Hamiltonian:             0.000     0.000   0.0% |
 Poisson:                            0.000     0.000   0.0% |
 XC 3D grid:                         0.006     0.006   1.2% |
LCAO initialization:                 0.011     0.006   1.2% |
 LCAO eigensolver:                   0.001     0.000   0.0% |
  Calculate projections:             0.000     0.000   0.0% |
  DenseAtomicCorrection:             0.000     0.000   0.0% |
  Distribute overlap matrix:         0.000     0.000   0.0% |
  Orbital Layouts:                   0.000     0.000   0.0% |
  Potential matrix:                  0.001     0.001   0.1% |
 LCAO to grid:                       0.003     0.003   0.5% |
 Set positions (LCAO WFS):           0.002     0.000   0.0% |
  Basic WFS set positions:           0.000     0.000   0.0% |
  Basis functions set positions:     0.000     0.000   0.0% |
  P tci:                             0.001     0.001   0.1% |
  ST tci:                            0.001     0.001   0.1% |
  mktci:                             0.001     0.001   0.2% |
PWDescriptor:                        0.000     0.000   0.1% |
SCF-cycle:                           0.430     0.002   0.4% |
 Davidson:                           0.150     0.013   2.6% ||
  Apply H:                           0.030     0.030   6.1% |-|
   HMM T:                            0.000     0.000   0.1% |
  Subspace diag:                     0.035     0.000   0.1% |
   calc_h_matrix:                    0.033     0.002   0.3% |
    Apply H:                         0.032     0.032   6.4% |--|
     HMM T:                          0.000     0.000   0.1% |
   diagonalize:                      0.001     0.001   0.1% |
   rotate_psi:                       0.001     0.001   0.1% |
  calc. matrices:                    0.070     0.007   1.4% ||
   Apply H:                          0.063     0.063  12.7% |----|
    HMM T:                           0.001     0.001   0.1% |
  diagonalize:                       0.001     0.001   0.2% |
  rotate_psi:                        0.001     0.001   0.2% |
 Density:                            0.089     0.000   0.0% |
  Atomic density matrices:           0.002     0.002   0.4% |
  Mix:                               0.066     0.066  13.4% |----|
  Multipole moments:                 0.000     0.000   0.1% |
  Pseudo density:                    0.021     0.016   3.3% ||
   Symmetrize density:               0.004     0.004   0.9% |
 Hamiltonian:                        0.188     0.004   0.8% |
  Atomic:                            0.069     0.002   0.5% |
   XC Correction:                    0.067     0.067  13.6% |----|
  Calculate atomic Hamiltonians:     0.027     0.027   5.5% |-|
  Communicate:                       0.000     0.000   0.0% |
  Poisson:                           0.002     0.002   0.3% |
  XC 3D grid:                        0.086     0.086  17.4% |------|
 Orthonormalize:                     0.000     0.000   0.0% |
  calc_s_matrix:                     0.000     0.000   0.0% |
  inverse-cholesky:                  0.000     0.000   0.0% |
  projections:                       0.000     0.000   0.0% |
  rotate_psi_s:                      0.000     0.000   0.0% |
Set symmetry:                        0.000     0.000   0.1% |
Other:                               0.039     0.039   7.8% |--|
-----------------------------------------------------------
Total:                                         0.492 100.0%

Memory usage: 856.66 MiB
Date: Tue Feb  4 15:28:05 2025
