
  ___ ___ ___ _ _ _  
 |   |   |_  | | | | 
 | | | | | . | | | | 
 |__ |  _|___|_____|  25.1.0
 |___|_|             

User:   zoe@Zoes-MacBook-Air.local
Date:   Tue Feb  4 15:27:29 2025
Arch:   arm64
Pid:    79289
CWD:    /Users/zoe/Documents/Python/TIF320_Computitional_molecular_physics
Python: 3.12.2
gpaw:   /opt/anaconda3/envs/tif320env/lib/python3.12/site-packages/gpaw
_gpaw:  /opt/anaconda3/envs/tif320env/lib/python3.12/site-packages/
        _gpaw.cpython-312-darwin.so
ase:    /opt/anaconda3/envs/tif320env/lib/python3.12/site-packages/ase (version 3.24.0)
numpy:  /opt/anaconda3/envs/tif320env/lib/python3.12/site-packages/numpy (version 2.0.1)
scipy:  /opt/anaconda3/envs/tif320env/lib/python3.12/site-packages/scipy (version 1.15.1)
libxc:  7.0.0
units:  Angstrom and eV
cores: 1
OpenMP: False
OMP_NUM_THREADS: 1

Input parameters:
  h: 0.16
  mode: fd

System changes: positions, numbers, cell, pbc, initial_charges, initial_magmoms 

Initialize ...

species:
  O:
    name: Oxygen
    id: 9b9d51c344dea68c822856295a461509
    Z: 8.0
    valence: 6
    core: 2
    charge: 0.0
    file: /opt/anaconda3/envs/tif320env/gpaw-setups/gpaw-setups-24.11.0/O.LDA.gz
    compensation charges: {type: gauss,
                           rc: 0.21,
                           lmax: 2}
    cutoffs: {filter: 1.17,
              core: 0.83}
    projectors:
      #              energy  rcut
      - 2s(2.00)   -23.752   0.688
      - 2p(4.00)    -9.195   0.598
      -  s           3.459   0.688
      -  p          18.016   0.598
      -  d           0.000   0.619
  
    # Using partial waves for O as LCAO basis

  H:
    name: Hydrogen
    id: 4766778ce56282eaa64abeb28b7c1de3
    Z: 1.0
    valence: 1
    core: 0
    charge: 0.0
    file: /opt/anaconda3/envs/tif320env/gpaw-setups/gpaw-setups-24.11.0/H.LDA.gz
    compensation charges: {type: gauss,
                           rc: 0.15,
                           lmax: 2}
    cutoffs: {filter: 0.85,
              core: 0.53}
    projectors:
      #              energy  rcut
      - 1s(1.00)    -6.353   0.476
      -  s          20.858   0.476
      -  p           0.000   0.476
  
    # Using partial waves for H as LCAO basis

Reference energy: -2052.165985  # eV

Spin-paired calculation

Convergence criteria:
 Maximum [total energy] change in last 3 cyles: 0.0005 eV / valence electron
 Maximum integral of absolute [dens]ity change: 0.0001 electrons / valence electron
 Maximum integral of absolute [eigenst]ate change: 4e-08 eV^2 / valence electron
 Maximum number of scf [iter]ations: 333
 (Square brackets indicate name in SCF output, whereas a 'c' in
 the SCF output indicates the quantity has converged.)

Symmetries present (total): 4

  ( 1  0  0)  ( 1  0  0)  (-1  0  0)  (-1  0  0)
  ( 0  1  0)  ( 0 -1  0)  ( 0  1  0)  ( 0 -1  0)
  ( 0  0  1)  ( 0  0  1)  ( 0  0  1)  ( 0  0  1)

1 k-point (Gamma)
1 k-point in the irreducible part of the Brillouin zone
       k-points in crystal coordinates                weights
   0:     0.00000000    0.00000000    0.00000000          1/1

Wave functions: Uniform real-space grid
  Kinetic energy operator: 6*3+1=19 point O(h^6) finite-difference Laplacian
  ScaLapack parameters: grid=1x1, blocksize=None
  Wavefunction extrapolation:
    Improved wavefunction reuse through dual PAW basis 

Occupation numbers: # Zero width 

Eigensolver
   Davidson(niter=2) 

Densities:
  Coarse grid: 52*52*52 grid
  Fine grid: 104*104*104 grid
  Total Charge: 0.000000 

Density mixing:
  Method: separate
  Backend: pulay
  Linear mixing parameter: 0.25
  old densities: 3
  Damping of long wavelength oscillations: 1  # (no daming) 

Hamiltonian:
  XC and Coulomb potentials evaluated on a 104*104*104 grid
  Using the LDA Exchange-Correlation functional
  Interpolation: tri-quintic (5. degree polynomial)
  Poisson solver: FastPoissonSolver using
    Stencil: 6*3+1=19 point O(h^6) finite-difference Laplacian
    FFT axes: []
    FST axes: [np.int64(0), np.int64(1), np.int64(2)]
 

Memory estimate:
  Process memory now: 772.06 MiB
  Calculator: 71.18 MiB
    Density: 35.85 MiB
      Arrays: 27.03 MiB
      Localized functions: 2.75 MiB
      Mixer: 6.07 MiB
    Hamiltonian: 17.88 MiB
      Arrays: 17.69 MiB
      XC: 0.00 MiB
      Poisson: 0.00 MiB
      vbar: 0.20 MiB
    Wavefunctions: 17.44 MiB
      Arrays psit_nG: 6.07 MiB
      Eigensolver: 11.14 MiB
      Projections: 0.00 MiB
      Projectors: 0.24 MiB

Total number of cores used: 1

Number of atoms: 3
Number of atomic orbitals: 6
Number of bands in calculation: 6
Number of valence electrons: 8
Bands to converge: occupied

... initialized

Initializing position-dependent things.

Density initialized from atomic densities
Creating initial wave functions:
  6 bands from LCAO basis set

      .-------------------.  
     /|                   |  
    / |                   |  
   /  |                   |  
  /   |                   |  
 *    |                   |  
 |    |                   |  
 |    |       O           |  
 |    |      H            |  
 |    |                   |  
 |    .-------------------.  
 |   /                   /   
 |  /                   /    
 | /                   /     
 |/                   /      
 *-------------------*       

Positions:
   0 O      4.000000    4.000000    4.298154    ( 0.0000,  0.0000,  0.0000)
   1 H      4.000000    4.763239    3.701846    ( 0.0000,  0.0000,  0.0000)
   2 H      4.000000    3.236761    3.701846    ( 0.0000,  0.0000,  0.0000)

Unit cell:
           periodic     x           y           z      points  spacing
  1. axis:    no     8.000000    0.000000    0.000000    52     0.1538
  2. axis:    no     0.000000    8.000000    0.000000    52     0.1538
  3. axis:    no     0.000000    0.000000    8.000000    52     0.1538

  Lengths:   8.000000   8.000000   8.000000
  Angles:   90.000000  90.000000  90.000000

Effective grid spacing dv^(1/3) = 0.1538

     iter     time        total  log10-change:
                         energy   eigst   dens
iter:   1 15:27:30   -17.259724
iter:   2 15:27:30   -15.457898   +0.81  -0.70
iter:   3 15:27:30   -15.219197   +0.86  -0.95
iter:   4 15:27:30   -15.162482   -0.21  -1.16
iter:   5 15:27:30   -15.162345   -0.36  -1.80
iter:   6 15:27:30   -15.162923c  -1.23  -2.30
iter:   7 15:27:30   -15.162973c  -2.12  -2.34
iter:   8 15:27:31   -15.163003c  -2.91  -2.35
iter:   9 15:27:31   -15.162971c  -2.91  -2.41
iter:  10 15:27:31   -15.162913c  -3.52  -2.65
iter:  11 15:27:31   -15.162930c  -3.76  -2.86
iter:  12 15:27:31   -15.162932c  -4.80  -3.32
iter:  13 15:27:31   -15.162932c  -5.00  -3.66
iter:  14 15:27:32   -15.162933c  -5.30  -3.98
iter:  15 15:27:32   -15.162933c  -6.78  -4.16c
iter:  16 15:27:32   -15.162933c  -6.86  -4.31c
iter:  17 15:27:32   -15.162933c  -7.23  -4.85c
iter:  18 15:27:32   -15.162933c  -7.18  -5.00c
iter:  19 15:27:32   -15.162933c  -8.47c -5.45c

Converged after 19 iterations.

Dipole moment: (0.000000, 0.000000, -0.394532) |e|*Ang

Energy contributions relative to reference atoms: (reference = -2052.165985)

Kinetic:        +17.197583
Potential:      -19.129213
External:        +0.000000
XC:             -13.579298
Entropy (-ST):   +0.000000
Local:           +0.347997
SIC:             +0.000000
--------------------------
Free energy:    -15.162933
Extrapolated:   -15.162933

 Band  Eigenvalues  Occupancy
    0    -25.10572    2.00000
    1    -13.14247    2.00000
    2     -9.42013    2.00000
    3     -7.37934    2.00000
    4     -0.60531    0.00000
    5      1.42106    0.00000

Fermi level: -3.99232

Gap: 6.774 eV
Transition (v -> c):
  (s=0, k=0, n=3, [0.00, 0.00, 0.00]) -> (s=0, k=0, n=4, [0.00, 0.00, 0.00])
No difference between direct/indirect transitions
Timing:                              incl.     excl.
-----------------------------------------------------------
Hamiltonian:                         0.083     0.000   0.0% |
 Atomic:                             0.004     0.000   0.0% |
  XC Correction:                     0.004     0.004   0.1% |
 Calculate atomic Hamiltonians:      0.000     0.000   0.0% |
 Communicate:                        0.000     0.000   0.0% |
 Hartree integrate/restrict:         0.004     0.004   0.1% |
 Initialize Hamiltonian:             0.000     0.000   0.0% |
 Poisson:                            0.044     0.002   0.1% |
  Communicate from 1D:               0.004     0.004   0.1% |
  Communicate from 2D:               0.004     0.004   0.1% |
  Communicate to 1D:                 0.005     0.005   0.2% |
  Communicate to 2D:                 0.005     0.005   0.1% |
  FFT 1D:                            0.007     0.007   0.2% |
  FFT 2D:                            0.016     0.016   0.5% |
 XC 3D grid:                         0.029     0.029   0.9% |
 vbar:                               0.001     0.001   0.0% |
LCAO initialization:                 0.013     0.006   0.2% |
 LCAO eigensolver:                   0.003     0.000   0.0% |
  Calculate projections:             0.000     0.000   0.0% |
  DenseAtomicCorrection:             0.000     0.000   0.0% |
  Distribute overlap matrix:         0.000     0.000   0.0% |
  Orbital Layouts:                   0.000     0.000   0.0% |
  Potential matrix:                  0.003     0.003   0.1% |
 LCAO to grid:                       0.003     0.003   0.1% |
 Set positions (LCAO WFS):           0.001     0.000   0.0% |
  Basic WFS set positions:           0.000     0.000   0.0% |
  Basis functions set positions:     0.000     0.000   0.0% |
  P tci:                             0.001     0.001   0.0% |
  ST tci:                            0.000     0.000   0.0% |
  mktci:                             0.000     0.000   0.0% |
SCF-cycle:                           2.893     0.004   0.1% |
 Davidson:                           1.246     0.419  12.8% |----|
  Apply hamiltonian:                 0.126     0.126   3.8% |-|
  Subspace diag:                     0.196     0.000   0.0% |
   calc_h_matrix:                    0.153     0.032   1.0% |
    Apply hamiltonian:               0.121     0.121   3.7% ||
   diagonalize:                      0.001     0.001   0.0% |
   rotate_psi:                       0.042     0.042   1.3% ||
  calc. matrices:                    0.455     0.212   6.5% |--|
   Apply hamiltonian:                0.243     0.243   7.4% |--|
  diagonalize:                       0.002     0.002   0.1% |
  rotate_psi:                        0.048     0.048   1.5% ||
 Density:                            0.132     0.000   0.0% |
  Atomic density matrices:           0.003     0.003   0.1% |
  Mix:                               0.085     0.085   2.6% ||
  Multipole moments:                 0.001     0.001   0.0% |
  Pseudo density:                    0.043     0.004   0.1% |
   Symmetrize density:               0.039     0.039   1.2% |
 Hamiltonian:                        1.509     0.000   0.0% |
  Atomic:                            0.078     0.003   0.1% |
   XC Correction:                    0.075     0.075   2.3% ||
  Calculate atomic Hamiltonians:     0.008     0.008   0.2% |
  Communicate:                       0.000     0.000   0.0% |
  Hartree integrate/restrict:        0.063     0.063   1.9% ||
  Poisson:                           0.830     0.029   0.9% |
   Communicate from 1D:              0.077     0.077   2.3% ||
   Communicate from 2D:              0.085     0.085   2.6% ||
   Communicate to 1D:                0.093     0.093   2.8% ||
   Communicate to 2D:                0.083     0.083   2.5% ||
   FFT 1D:                           0.144     0.144   4.4% |-|
   FFT 2D:                           0.319     0.319   9.7% |---|
  XC 3D grid:                        0.521     0.521  15.9% |-----|
  vbar:                              0.009     0.009   0.3% |
 Orthonormalize:                     0.002     0.000   0.0% |
  calc_s_matrix:                     0.001     0.001   0.0% |
  inverse-cholesky:                  0.000     0.000   0.0% |
  projections:                       0.000     0.000   0.0% |
  rotate_psi_s:                      0.001     0.001   0.0% |
Set symmetry:                        0.000     0.000   0.0% |
Other:                               0.293     0.293   8.9% |---|
-----------------------------------------------------------
Total:                                         3.282 100.0%

Memory usage: 856.66 MiB
Date: Tue Feb  4 15:27:32 2025
