
  ___ ___ ___ _ _ _  
 |   |   |_  | | | | 
 | | | | | . | | | | 
 |__ |  _|___|_____|  25.1.0
 |___|_|             

User:   zoe@Zoes-MacBook-Air.local
Date:   Tue Feb  4 15:28:18 2025
Arch:   arm64
Pid:    79289
CWD:    /Users/zoe/Documents/Python/TIF320_Computitional_molecular_physics
Python: 3.12.2
gpaw:   /opt/anaconda3/envs/tif320env/lib/python3.12/site-packages/gpaw
_gpaw:  /opt/anaconda3/envs/tif320env/lib/python3.12/site-packages/
        _gpaw.cpython-312-darwin.so
ase:    /opt/anaconda3/envs/tif320env/lib/python3.12/site-packages/ase (version 3.24.0)
numpy:  /opt/anaconda3/envs/tif320env/lib/python3.12/site-packages/numpy (version 2.0.1)
scipy:  /opt/anaconda3/envs/tif320env/lib/python3.12/site-packages/scipy (version 1.15.1)
libxc:  7.0.0
units:  Angstrom and eV
cores: 1
OpenMP: False
OMP_NUM_THREADS: 1

Input parameters:
  mode: {ecut: 400.0,
         name: pw}

System changes: positions, numbers, cell, pbc, initial_charges, initial_magmoms 

Initialize ...

species:
  O:
    name: Oxygen
    id: 9b9d51c344dea68c822856295a461509
    Z: 8.0
    valence: 6
    core: 2
    charge: 0.0
    file: /opt/anaconda3/envs/tif320env/gpaw-setups/gpaw-setups-24.11.0/O.LDA.gz
    compensation charges: {type: gauss,
                           rc: 0.21,
                           lmax: 2}
    cutoffs: {filter: 1.17,
              core: 0.83}
    projectors:
      #              energy  rcut
      - 2s(2.00)   -23.752   0.688
      - 2p(4.00)    -9.195   0.598
      -  s           3.459   0.688
      -  p          18.016   0.598
      -  d           0.000   0.619
  
    # Using partial waves for O as LCAO basis

  H:
    name: Hydrogen
    id: 4766778ce56282eaa64abeb28b7c1de3
    Z: 1.0
    valence: 1
    core: 0
    charge: 0.0
    file: /opt/anaconda3/envs/tif320env/gpaw-setups/gpaw-setups-24.11.0/H.LDA.gz
    compensation charges: {type: gauss,
                           rc: 0.15,
                           lmax: 2}
    cutoffs: {filter: 0.85,
              core: 0.53}
    projectors:
      #              energy  rcut
      - 1s(1.00)    -6.353   0.476
      -  s          20.858   0.476
      -  p           0.000   0.476
  
    # Using partial waves for H as LCAO basis

Reference energy: -2052.165985  # eV

Spin-paired calculation

Convergence criteria:
 Maximum [total energy] change in last 3 cyles: 0.0005 eV / valence electron
 Maximum integral of absolute [dens]ity change: 0.0001 electrons / valence electron
 Maximum integral of absolute [eigenst]ate change: 4e-08 eV^2 / valence electron
 Maximum number of scf [iter]ations: 333
 (Square brackets indicate name in SCF output, whereas a 'c' in
 the SCF output indicates the quantity has converged.)

Symmetries present (total): 4

  ( 1  0  0)  ( 1  0  0)  (-1  0  0)  (-1  0  0)
  ( 0  1  0)  ( 0 -1  0)  ( 0  1  0)  ( 0 -1  0)
  ( 0  0  1)  ( 0  0  1)  ( 0  0  1)  ( 0  0  1)

1 k-point (Gamma)
1 k-point in the irreducible part of the Brillouin zone
       k-points in crystal coordinates                weights
   0:     0.00000000    0.00000000    0.00000000          1/1

Wave functions: Plane wave expansion
  Cutoff energy: 400.000 eV
  Number of coefficients: 9315 (reduced to 4658)
  Pulay-stress correction: 0.000000 eV/Ang^3 (de/decut=0.000000)
  Using Numpy's FFT
  ScaLapack parameters: grid=1x1, blocksize=None
  Wavefunction extrapolation:
    Improved wavefunction reuse through dual PAW basis 

Occupation numbers: # Zero width 

Eigensolver
   Davidson(niter=2) 

Densities:
  Coarse grid: 40*40*40 grid
  Fine grid: 80*80*80 grid
  Total Charge: 0.000000 

Density mixing:
  Method: separate
  Backend: pulay
  Linear mixing parameter: 0.05
  old densities: 5
  Damping of long wavelength oscillations: 50 

Hamiltonian:
  XC and Coulomb potentials evaluated on a 80*80*80 grid
  Using the LDA Exchange-Correlation functional
  External potential:
    NoExternalPotential
 

Memory estimate:
  Process memory now: 856.66 MiB
  Calculator: 41.67 MiB
    Density: 29.92 MiB
      Arrays: 12.70 MiB
      Localized functions: 12.34 MiB
      Mixer: 4.88 MiB
    Hamiltonian: 8.60 MiB
      Arrays: 8.30 MiB
      XC: 0.00 MiB
      Poisson: 0.00 MiB
      vbar: 0.30 MiB
    Wavefunctions: 3.14 MiB
      Arrays psit_nG: 0.43 MiB
      Eigensolver: 0.78 MiB
      Projections: 0.00 MiB
      Projectors: 0.60 MiB
      PW-descriptor: 1.33 MiB

Total number of cores used: 1

Number of atoms: 3
Number of atomic orbitals: 6
Number of bands in calculation: 6
Number of valence electrons: 8
Bands to converge: occupied

... initialized

Initializing position-dependent things.

Density initialized from atomic densities
Creating initial wave functions:
  6 bands from LCAO basis set

      .-------------------.  
     /|                   |  
    / |                   |  
   /  |                   |  
  /   |                   |  
 *    |                   |  
 |    |                   |  
 |    |       O           |  
 |    |      H            |  
 |    |                   |  
 |    .-------------------.  
 |   /                   /   
 |  /                   /    
 | /                   /     
 |/                   /      
 *-------------------*       

Positions:
   0 O      4.000000    4.000000    4.298154    ( 0.0000,  0.0000,  0.0000)
   1 H      4.000000    4.763239    3.701846    ( 0.0000,  0.0000,  0.0000)
   2 H      4.000000    3.236761    3.701846    ( 0.0000,  0.0000,  0.0000)

Unit cell:
           periodic     x           y           z      points  spacing
  1. axis:    no     8.000000    0.000000    0.000000    40     0.2000
  2. axis:    no     0.000000    8.000000    0.000000    40     0.2000
  3. axis:    no     0.000000    0.000000    8.000000    40     0.2000

  Lengths:   8.000000   8.000000   8.000000
  Angles:   90.000000  90.000000  90.000000

Effective grid spacing dv^(1/3) = 0.2000

     iter     time        total  log10-change:
                         energy   eigst   dens
iter:   1 15:28:18   -14.839375
iter:   2 15:28:18   -14.473633   -1.26  -0.70
iter:   3 15:28:18   -13.237087   -0.69  -0.74
iter:   4 15:28:18   -13.222419   -1.80  -1.04
iter:   5 15:28:18   -13.188004   -1.56  -1.09
iter:   6 15:28:19   -13.106937   -1.45  -1.42
iter:   7 15:28:19   -13.108750   -2.53  -2.09
iter:   8 15:28:19   -13.109102c  -3.07  -1.99
iter:   9 15:28:19   -13.107370c  -3.84  -2.04
iter:  10 15:28:19   -13.106863c  -4.32  -2.20
iter:  11 15:28:19   -13.105858c  -3.58  -2.28
iter:  12 15:28:19   -13.105908c  -3.90  -2.95
iter:  13 15:28:19   -13.105869c  -5.19  -3.04
iter:  14 15:28:19   -13.105864c  -5.15  -3.23
iter:  15 15:28:19   -13.105864c  -6.49  -3.21
iter:  16 15:28:19   -13.105863c  -6.27  -3.25
iter:  17 15:28:19   -13.105865c  -6.18  -3.40
iter:  18 15:28:19   -13.105864c  -6.82  -3.67
iter:  19 15:28:19   -13.105864c  -6.92  -3.70
iter:  20 15:28:19   -13.105865c  -6.74  -3.72
iter:  21 15:28:20   -13.105865c  -7.61c -3.94
iter:  22 15:28:20   -13.105865c  -7.77c -3.91
iter:  23 15:28:20   -13.105865c  -7.64c -3.92
iter:  24 15:28:20   -13.105865c  -6.55  -3.90
iter:  25 15:28:20   -13.105865c  -7.54c -3.93
iter:  26 15:28:20   -13.105865c  -6.65  -4.06c
iter:  27 15:28:20   -13.105865c  -7.84c -4.15c

Converged after 27 iterations.

Dipole moment: (0.000000, 0.000000, -0.384839) |e|*Ang

Energy contributions relative to reference atoms: (reference = -2052.165985)

Kinetic:         +6.843371
Potential:       -7.090209
External:        +0.000000
XC:             -12.762023
Entropy (-ST):   +0.000000
Local:           -0.097004
SIC:             +0.000000
--------------------------
Free energy:    -13.105865
Extrapolated:   -13.105865

 Band  Eigenvalues  Occupancy
    0    -25.19807    2.00000
    1    -12.92928    2.00000
    2     -9.23743    2.00000
    3     -7.13925    2.00000
    4     -1.02857    0.00000
    5      1.30238    0.00000

Fermi level: -4.08391

Gap: 6.111 eV
Transition (v -> c):
  (s=0, k=0, n=3, [0.00, 0.00, 0.00]) -> (s=0, k=0, n=4, [0.00, 0.00, 0.00])
No difference between direct/indirect transitions
Timing:                              incl.     excl.
-----------------------------------------------------------
Hamiltonian:                         0.027     0.001   0.0% |
 Atomic:                             0.004     0.000   0.0% |
  XC Correction:                     0.004     0.004   0.2% |
 Calculate atomic Hamiltonians:      0.004     0.004   0.2% |
 Communicate:                        0.000     0.000   0.0% |
 Initialize Hamiltonian:             0.000     0.000   0.0% |
 Poisson:                            0.000     0.000   0.0% |
 XC 3D grid:                         0.017     0.017   0.9% |
LCAO initialization:                 0.015     0.007   0.4% |
 LCAO eigensolver:                   0.002     0.000   0.0% |
  Calculate projections:             0.000     0.000   0.0% |
  DenseAtomicCorrection:             0.000     0.000   0.0% |
  Distribute overlap matrix:         0.000     0.000   0.0% |
  Orbital Layouts:                   0.000     0.000   0.0% |
  Potential matrix:                  0.002     0.002   0.1% |
 LCAO to grid:                       0.004     0.004   0.2% |
 Set positions (LCAO WFS):           0.002     0.000   0.0% |
  Basic WFS set positions:           0.000     0.000   0.0% |
  Basis functions set positions:     0.000     0.000   0.0% |
  P tci:                             0.001     0.001   0.0% |
  ST tci:                            0.001     0.001   0.0% |
  mktci:                             0.001     0.001   0.0% |
PWDescriptor:                        0.001     0.001   0.0% |
SCF-cycle:                           1.784     0.004   0.2% |
 Davidson:                           0.623     0.084   4.4% |-|
  Apply H:                           0.123     0.122   6.5% |--|
   HMM T:                            0.001     0.001   0.0% |
  Subspace diag:                     0.141     0.001   0.0% |
   calc_h_matrix:                    0.137     0.005   0.2% |
    Apply H:                         0.132     0.131   7.0% |--|
     HMM T:                          0.001     0.001   0.1% |
   diagonalize:                      0.001     0.001   0.1% |
   rotate_psi:                       0.002     0.002   0.1% |
  calc. matrices:                    0.269     0.023   1.2% |
   Apply H:                          0.246     0.244  12.9% |----|
    HMM T:                           0.002     0.002   0.1% |
  diagonalize:                       0.002     0.002   0.1% |
  rotate_psi:                        0.004     0.004   0.2% |
 Density:                            0.407     0.000   0.0% |
  Atomic density matrices:           0.004     0.004   0.2% |
  Mix:                               0.313     0.313  16.6% |------|
  Multipole moments:                 0.001     0.001   0.0% |
  Pseudo density:                    0.090     0.067   3.6% ||
   Symmetrize density:               0.023     0.023   1.2% |
 Hamiltonian:                        0.749     0.026   1.4% ||
  Atomic:                            0.113     0.004   0.2% |
   XC Correction:                    0.109     0.109   5.8% |-|
  Calculate atomic Hamiltonians:     0.142     0.142   7.6% |--|
  Communicate:                       0.000     0.000   0.0% |
  Poisson:                           0.008     0.008   0.4% |
  XC 3D grid:                        0.460     0.460  24.4% |---------|
 Orthonormalize:                     0.001     0.000   0.0% |
  calc_s_matrix:                     0.000     0.000   0.0% |
  inverse-cholesky:                  0.000     0.000   0.0% |
  projections:                       0.000     0.000   0.0% |
  rotate_psi_s:                      0.000     0.000   0.0% |
Set symmetry:                        0.000     0.000   0.0% |
Other:                               0.057     0.057   3.0% ||
-----------------------------------------------------------
Total:                                         1.884 100.0%

Memory usage: 860.84 MiB
Date: Tue Feb  4 15:28:20 2025
