
  ___ ___ ___ _ _ _  
 |   |   |_  | | | | 
 | | | | | . | | | | 
 |__ |  _|___|_____|  25.1.0
 |___|_|             

User:   zoe@Zoes-MacBook-Air.local
Date:   Tue Feb  4 15:28:09 2025
Arch:   arm64
Pid:    79289
CWD:    /Users/zoe/Documents/Python/TIF320_Computitional_molecular_physics
Python: 3.12.2
gpaw:   /opt/anaconda3/envs/tif320env/lib/python3.12/site-packages/gpaw
_gpaw:  /opt/anaconda3/envs/tif320env/lib/python3.12/site-packages/
        _gpaw.cpython-312-darwin.so
ase:    /opt/anaconda3/envs/tif320env/lib/python3.12/site-packages/ase (version 3.24.0)
numpy:  /opt/anaconda3/envs/tif320env/lib/python3.12/site-packages/numpy (version 2.0.1)
scipy:  /opt/anaconda3/envs/tif320env/lib/python3.12/site-packages/scipy (version 1.15.1)
libxc:  7.0.0
units:  Angstrom and eV
cores: 1
OpenMP: False
OMP_NUM_THREADS: 1

Input parameters:
  mode: {ecut: 300.0,
         name: pw}

System changes: positions, numbers, cell, pbc, initial_charges, initial_magmoms 

Initialize ...

species:
  O:
    name: Oxygen
    id: 9b9d51c344dea68c822856295a461509
    Z: 8.0
    valence: 6
    core: 2
    charge: 0.0
    file: /opt/anaconda3/envs/tif320env/gpaw-setups/gpaw-setups-24.11.0/O.LDA.gz
    compensation charges: {type: gauss,
                           rc: 0.21,
                           lmax: 2}
    cutoffs: {filter: 1.17,
              core: 0.83}
    projectors:
      #              energy  rcut
      - 2s(2.00)   -23.752   0.688
      - 2p(4.00)    -9.195   0.598
      -  s           3.459   0.688
      -  p          18.016   0.598
      -  d           0.000   0.619
  
    # Using partial waves for O as LCAO basis

  H:
    name: Hydrogen
    id: 4766778ce56282eaa64abeb28b7c1de3
    Z: 1.0
    valence: 1
    core: 0
    charge: 0.0
    file: /opt/anaconda3/envs/tif320env/gpaw-setups/gpaw-setups-24.11.0/H.LDA.gz
    compensation charges: {type: gauss,
                           rc: 0.15,
                           lmax: 2}
    cutoffs: {filter: 0.85,
              core: 0.53}
    projectors:
      #              energy  rcut
      - 1s(1.00)    -6.353   0.476
      -  s          20.858   0.476
      -  p           0.000   0.476
  
    # Using partial waves for H as LCAO basis

Reference energy: -2052.165985  # eV

Spin-paired calculation

Convergence criteria:
 Maximum [total energy] change in last 3 cyles: 0.0005 eV / valence electron
 Maximum integral of absolute [dens]ity change: 0.0001 electrons / valence electron
 Maximum integral of absolute [eigenst]ate change: 4e-08 eV^2 / valence electron
 Maximum number of scf [iter]ations: 333
 (Square brackets indicate name in SCF output, whereas a 'c' in
 the SCF output indicates the quantity has converged.)

Symmetries present (total): 4

  ( 1  0  0)  ( 1  0  0)  (-1  0  0)  (-1  0  0)
  ( 0  1  0)  ( 0 -1  0)  ( 0  1  0)  ( 0 -1  0)
  ( 0  0  1)  ( 0  0  1)  ( 0  0  1)  ( 0  0  1)

1 k-point (Gamma)
1 k-point in the irreducible part of the Brillouin zone
       k-points in crystal coordinates                weights
   0:     0.00000000    0.00000000    0.00000000          1/1

Wave functions: Plane wave expansion
  Cutoff energy: 300.000 eV
  Number of coefficients: 6031 (reduced to 3016)
  Pulay-stress correction: 0.000000 eV/Ang^3 (de/decut=0.000000)
  Using Numpy's FFT
  ScaLapack parameters: grid=1x1, blocksize=None
  Wavefunction extrapolation:
    Improved wavefunction reuse through dual PAW basis 

Occupation numbers: # Zero width 

Eigensolver
   Davidson(niter=2) 

Densities:
  Coarse grid: 32*32*32 grid
  Fine grid: 64*64*64 grid
  Total Charge: 0.000000 

Density mixing:
  Method: separate
  Backend: pulay
  Linear mixing parameter: 0.05
  old densities: 5
  Damping of long wavelength oscillations: 50 

Hamiltonian:
  XC and Coulomb potentials evaluated on a 64*64*64 grid
  Using the LDA Exchange-Correlation functional
  External potential:
    NoExternalPotential
 

Memory estimate:
  Process memory now: 856.66 MiB
  Calculator: 23.33 MiB
    Density: 17.02 MiB
      Arrays: 6.50 MiB
      Localized functions: 8.02 MiB
      Mixer: 2.50 MiB
    Hamiltonian: 4.45 MiB
      Arrays: 4.25 MiB
      XC: 0.00 MiB
      Poisson: 0.00 MiB
      vbar: 0.20 MiB
    Wavefunctions: 1.87 MiB
      Arrays psit_nG: 0.28 MiB
      Eigensolver: 0.51 MiB
      Projections: 0.00 MiB
      Projectors: 0.39 MiB
      PW-descriptor: 0.69 MiB

Total number of cores used: 1

Number of atoms: 3
Number of atomic orbitals: 6
Number of bands in calculation: 6
Number of valence electrons: 8
Bands to converge: occupied

... initialized

Initializing position-dependent things.

Density initialized from atomic densities
Creating initial wave functions:
  6 bands from LCAO basis set

      .-------------------.  
     /|                   |  
    / |                   |  
   /  |                   |  
  /   |                   |  
 *    |                   |  
 |    |                   |  
 |    |       O           |  
 |    |      H            |  
 |    |                   |  
 |    .-------------------.  
 |   /                   /   
 |  /                   /    
 | /                   /     
 |/                   /      
 *-------------------*       

Positions:
   0 O      4.000000    4.000000    4.298154    ( 0.0000,  0.0000,  0.0000)
   1 H      4.000000    4.763239    3.701846    ( 0.0000,  0.0000,  0.0000)
   2 H      4.000000    3.236761    3.701846    ( 0.0000,  0.0000,  0.0000)

Unit cell:
           periodic     x           y           z      points  spacing
  1. axis:    no     8.000000    0.000000    0.000000    32     0.2500
  2. axis:    no     0.000000    8.000000    0.000000    32     0.2500
  3. axis:    no     0.000000    0.000000    8.000000    32     0.2500

  Lengths:   8.000000   8.000000   8.000000
  Angles:   90.000000  90.000000  90.000000

Effective grid spacing dv^(1/3) = 0.2500

     iter     time        total  log10-change:
                         energy   eigst   dens
iter:   1 15:28:09    -8.447602
iter:   2 15:28:09    -8.289728   -1.23  -0.71
iter:   3 15:28:09    -7.567939   -0.82  -0.74
iter:   4 15:28:09    -7.502423   -0.94  -1.02
iter:   5 15:28:10    -7.377155   -1.46  -1.23
iter:   6 15:28:10    -7.369297   -2.02  -1.65
iter:   7 15:28:10    -7.371220   -2.76  -2.04
iter:   8 15:28:10    -7.367441c  -3.06  -1.95
iter:   9 15:28:10    -7.367245c  -3.75  -2.49
iter:  10 15:28:10    -7.367220c  -4.43  -2.82
iter:  11 15:28:10    -7.367205c  -4.53  -3.00
iter:  12 15:28:10    -7.367193c  -5.65  -3.37
iter:  13 15:28:10    -7.367191c  -6.09  -3.60
iter:  14 15:28:10    -7.367192c  -6.79  -3.77
iter:  15 15:28:10    -7.367192c  -5.83  -3.67
iter:  16 15:28:10    -7.367191c  -6.50  -3.85
iter:  17 15:28:10    -7.367192c  -6.71  -4.07c
iter:  18 15:28:10    -7.367191c  -6.65  -3.96
iter:  19 15:28:10    -7.367191c  -7.43c -4.23c

Converged after 19 iterations.

Dipole moment: (0.000000, 0.000000, -0.362880) |e|*Ang

Energy contributions relative to reference atoms: (reference = -2052.165985)

Kinetic:        -13.196326
Potential:      +16.747831
External:        +0.000000
XC:             -10.786383
Entropy (-ST):   +0.000000
Local:           -0.132313
SIC:             +0.000000
--------------------------
Free energy:     -7.367191
Extrapolated:    -7.367191

 Band  Eigenvalues  Occupancy
    0    -26.16508    2.00000
    1    -12.87072    2.00000
    2     -9.32248    2.00000
    3     -7.06236    2.00000
    4     -1.08573    0.00000
    5      1.32068    0.00000

Fermi level: -4.07404

Gap: 5.977 eV
Transition (v -> c):
  (s=0, k=0, n=3, [0.00, 0.00, 0.00]) -> (s=0, k=0, n=4, [0.00, 0.00, 0.00])
No difference between direct/indirect transitions
Timing:                              incl.     excl.
-----------------------------------------------------------
Hamiltonian:                         0.016     0.000   0.0% |
 Atomic:                             0.004     0.000   0.0% |
  XC Correction:                     0.004     0.004   0.5% |
 Calculate atomic Hamiltonians:      0.003     0.003   0.3% |
 Communicate:                        0.000     0.000   0.0% |
 Initialize Hamiltonian:             0.000     0.000   0.0% |
 Poisson:                            0.000     0.000   0.0% |
 XC 3D grid:                         0.009     0.009   1.0% |
LCAO initialization:                 0.011     0.006   0.7% |
 LCAO eigensolver:                   0.001     0.000   0.0% |
  Calculate projections:             0.000     0.000   0.0% |
  DenseAtomicCorrection:             0.000     0.000   0.0% |
  Distribute overlap matrix:         0.000     0.000   0.0% |
  Orbital Layouts:                   0.000     0.000   0.0% |
  Potential matrix:                  0.001     0.001   0.1% |
 LCAO to grid:                       0.002     0.002   0.2% |
 Set positions (LCAO WFS):           0.002     0.000   0.0% |
  Basic WFS set positions:           0.000     0.000   0.0% |
  Basis functions set positions:     0.000     0.000   0.0% |
  P tci:                             0.000     0.000   0.1% |
  ST tci:                            0.001     0.001   0.1% |
  mktci:                             0.001     0.001   0.1% |
PWDescriptor:                        0.000     0.000   0.0% |
SCF-cycle:                           0.755     0.003   0.4% |
 Davidson:                           0.278     0.043   5.2% |-|
  Apply H:                           0.050     0.050   6.0% |-|
   HMM T:                            0.001     0.001   0.1% |
  Subspace diag:                     0.058     0.000   0.0% |
   calc_h_matrix:                    0.056     0.002   0.3% |
    Apply H:                         0.054     0.053   6.4% |--|
     HMM T:                          0.001     0.001   0.1% |
   diagonalize:                      0.001     0.001   0.1% |
   rotate_psi:                       0.001     0.001   0.1% |
  calc. matrices:                    0.122     0.012   1.4% ||
   Apply H:                          0.110     0.109  13.2% |----|
    HMM T:                           0.001     0.001   0.1% |
  diagonalize:                       0.002     0.002   0.2% |
  rotate_psi:                        0.002     0.002   0.2% |
 Density:                            0.164     0.000   0.0% |
  Atomic density matrices:           0.003     0.003   0.3% |
  Mix:                               0.123     0.123  14.9% |-----|
  Multipole moments:                 0.001     0.001   0.1% |
  Pseudo density:                    0.038     0.030   3.6% ||
   Symmetrize density:               0.008     0.008   1.0% |
 Hamiltonian:                        0.310     0.010   1.2% |
  Atomic:                            0.081     0.003   0.3% |
   XC Correction:                    0.078     0.078   9.5% |---|
  Calculate atomic Hamiltonians:     0.053     0.053   6.4% |--|
  Communicate:                       0.000     0.000   0.0% |
  Poisson:                           0.004     0.004   0.4% |
  XC 3D grid:                        0.162     0.162  19.6% |-------|
 Orthonormalize:                     0.000     0.000   0.0% |
  calc_s_matrix:                     0.000     0.000   0.0% |
  inverse-cholesky:                  0.000     0.000   0.0% |
  projections:                       0.000     0.000   0.0% |
  rotate_psi_s:                      0.000     0.000   0.0% |
Set symmetry:                        0.000     0.000   0.1% |
Other:                               0.046     0.046   5.5% |-|
-----------------------------------------------------------
Total:                                         0.829 100.0%

Memory usage: 856.66 MiB
Date: Tue Feb  4 15:28:10 2025
