
  ___ ___ ___ _ _ _  
 |   |   |_  | | | | 
 | | | | | . | | | | 
 |__ |  _|___|_____|  25.1.0
 |___|_|             

User:   zoe@Zoes-MacBook-Air.local
Date:   Tue Feb  4 15:26:34 2025
Arch:   arm64
Pid:    79289
CWD:    /Users/zoe/Documents/Python/TIF320_Computitional_molecular_physics
Python: 3.12.2
gpaw:   /opt/anaconda3/envs/tif320env/lib/python3.12/site-packages/gpaw
_gpaw:  /opt/anaconda3/envs/tif320env/lib/python3.12/site-packages/
        _gpaw.cpython-312-darwin.so
ase:    /opt/anaconda3/envs/tif320env/lib/python3.12/site-packages/ase (version 3.24.0)
numpy:  /opt/anaconda3/envs/tif320env/lib/python3.12/site-packages/numpy (version 2.0.1)
scipy:  /opt/anaconda3/envs/tif320env/lib/python3.12/site-packages/scipy (version 1.15.1)
libxc:  7.0.0
units:  Angstrom and eV
cores: 1
OpenMP: False
OMP_NUM_THREADS: 1

Input parameters:
  h: 0.2
  mode: fd
  xc: PBE

System changes: positions, numbers, cell, pbc, initial_charges, initial_magmoms 

Initialize ...

species:
  O:
    name: Oxygen
    id: 32ecd46bf208036f09c70b0ec9a88b78
    Z: 8.0
    valence: 6
    core: 2
    charge: 0.0
    file: /opt/anaconda3/envs/tif320env/gpaw-setups/gpaw-setups-24.11.0/O.PBE.gz
    compensation charges: {type: gauss,
                           rc: 0.21,
                           lmax: 2}
    cutoffs: {filter: 1.17,
              core: 0.83}
    projectors:
      #              energy  rcut
      - 2s(2.00)   -23.961   0.688
      - 2p(4.00)    -9.029   0.598
      -  s           3.251   0.688
      -  p          18.182   0.598
      -  d           0.000   0.619
  
    # Using partial waves for O as LCAO basis

  H:
    name: Hydrogen
    id: d65de229564ff8ea4db303e23b6d1ecf
    Z: 1.0
    valence: 1
    core: 0
    charge: 0.0
    file: /opt/anaconda3/envs/tif320env/gpaw-setups/gpaw-setups-24.11.0/H.PBE.gz
    compensation charges: {type: gauss,
                           rc: 0.15,
                           lmax: 2}
    cutoffs: {filter: 0.85,
              core: 0.53}
    projectors:
      #              energy  rcut
      - 1s(1.00)    -6.494   0.476
      -  s          20.717   0.476
      -  p           0.000   0.476
  
    # Using partial waves for H as LCAO basis

Reference energy: -2065.832626  # eV

Spin-paired calculation

Convergence criteria:
 Maximum [total energy] change in last 3 cyles: 0.0005 eV / valence electron
 Maximum integral of absolute [dens]ity change: 0.0001 electrons / valence electron
 Maximum integral of absolute [eigenst]ate change: 4e-08 eV^2 / valence electron
 Maximum number of scf [iter]ations: 333
 (Square brackets indicate name in SCF output, whereas a 'c' in
 the SCF output indicates the quantity has converged.)

Symmetries present (total): 4

  ( 1  0  0)  ( 1  0  0)  (-1  0  0)  (-1  0  0)
  ( 0  1  0)  ( 0 -1  0)  ( 0  1  0)  ( 0 -1  0)
  ( 0  0  1)  ( 0  0  1)  ( 0  0  1)  ( 0  0  1)

1 k-point (Gamma)
1 k-point in the irreducible part of the Brillouin zone
       k-points in crystal coordinates                weights
   0:     0.00000000    0.00000000    0.00000000          1/1

Wave functions: Uniform real-space grid
  Kinetic energy operator: 6*3+1=19 point O(h^6) finite-difference Laplacian
  ScaLapack parameters: grid=1x1, blocksize=None
  Wavefunction extrapolation:
    Improved wavefunction reuse through dual PAW basis 

Occupation numbers: # Zero width 

Eigensolver
   Davidson(niter=2) 

Densities:
  Coarse grid: 48*48*48 grid
  Fine grid: 96*96*96 grid
  Total Charge: 0.000000 

Density mixing:
  Method: separate
  Backend: pulay
  Linear mixing parameter: 0.25
  old densities: 3
  Damping of long wavelength oscillations: 1  # (no daming) 

Hamiltonian:
  XC and Coulomb potentials evaluated on a 96*96*96 grid
  Using the PBE Exchange-Correlation functional
  Interpolation: tri-quintic (5. degree polynomial)
  Poisson solver: FastPoissonSolver using
    Stencil: 6*3+1=19 point O(h^6) finite-difference Laplacian
    FFT axes: []
    FST axes: [np.int64(0), np.int64(1), np.int64(2)]
 

XC parameters: PBE with 2 nearest neighbor stencil

Memory estimate:
  Process memory now: 229.34 MiB
  Calculator: 54.58 MiB
    Density: 27.07 MiB
      Arrays: 21.21 MiB
      Localized functions: 1.11 MiB
      Mixer: 4.75 MiB
    Hamiltonian: 13.95 MiB
      Arrays: 13.87 MiB
      XC: 0.00 MiB
      Poisson: 0.00 MiB
      vbar: 0.08 MiB
    Wavefunctions: 13.56 MiB
      Arrays psit_nG: 4.75 MiB
      Eigensolver: 8.72 MiB
      Projections: 0.00 MiB
      Projectors: 0.09 MiB

Total number of cores used: 1

Number of atoms: 3
Number of atomic orbitals: 6
Number of bands in calculation: 6
Number of valence electrons: 8
Bands to converge: occupied

... initialized

Initializing position-dependent things.

Density initialized from atomic densities
Creating initial wave functions:
  6 bands from LCAO basis set

       .------------------------.  
      /|                        |  
     / |                        |  
    /  |                        |  
   /   |                        |  
  /    |                        |  
 *     |                        |  
 |     |                        |  
 |     |                        |  
 |     |         O              |  
 |     |        H               |  
 |     |                        |  
 |     .------------------------.  
 |    /                        /   
 |   /                        /    
 |  /                        /     
 | /                        /      
 |/                        /       
 *------------------------*        

Positions:
   0 O      5.000000    5.000000    5.298154    ( 0.0000,  0.0000,  0.0000)
   1 H      5.000000    5.763239    4.701846    ( 0.0000,  0.0000,  0.0000)
   2 H      5.000000    4.236761    4.701846    ( 0.0000,  0.0000,  0.0000)

Unit cell:
           periodic     x           y           z      points  spacing
  1. axis:    no    10.000000    0.000000    0.000000    48     0.2083
  2. axis:    no     0.000000   10.000000    0.000000    48     0.2083
  3. axis:    no     0.000000    0.000000   10.000000    48     0.2083

  Lengths:  10.000000  10.000000  10.000000
  Angles:   90.000000  90.000000  90.000000

Effective grid spacing dv^(1/3) = 0.2083

     iter     time        total  log10-change:
                         energy   eigst   dens
iter:   1 15:26:34   -16.554976
iter:   2 15:26:34   -14.881181   +0.67  -0.71
iter:   3 15:26:34   -14.702229   +0.45  -0.97
iter:   4 15:26:35   -14.672484   -0.79  -1.16
iter:   5 15:26:35   -14.658657   -1.17  -1.72
iter:   6 15:26:35   -14.658612   -1.62  -2.39
iter:   7 15:26:35   -14.658646c  -2.68  -2.51
iter:   8 15:26:35   -14.658926c  -2.74  -2.59
iter:   9 15:26:35   -14.658668c  -2.96  -2.70
iter:  10 15:26:36   -14.658687c  -3.06  -3.08
iter:  11 15:26:36   -14.658679c  -4.37  -3.49
iter:  12 15:26:36   -14.658679c  -4.77  -3.98
iter:  13 15:26:36   -14.658679c  -5.48  -4.06c
iter:  14 15:26:36   -14.658679c  -5.72  -4.47c
iter:  15 15:26:36   -14.658679c  -6.36  -4.43c
iter:  16 15:26:37   -14.658679c  -7.36  -4.85c
iter:  17 15:26:37   -14.658679c  -7.77c -4.97c

Converged after 17 iterations.

Dipole moment: (-0.000000, -0.000000, -0.379225) |e|*Ang

Energy contributions relative to reference atoms: (reference = -2065.832626)

Kinetic:        +17.024098
Potential:      -19.683638
External:        +0.000000
XC:             -12.720192
Entropy (-ST):   +0.000000
Local:           +0.721054
SIC:             +0.000000
--------------------------
Free energy:    -14.658679
Extrapolated:   -14.658679

 Band  Eigenvalues  Occupancy
    0    -25.22110    2.00000
    1    -13.07773    2.00000
    2     -9.34516    2.00000
    3     -7.24903    2.00000
    4     -0.85083    0.00000
    5      0.83846    0.00000

Fermi level: -4.04993

Gap: 6.398 eV
Transition (v -> c):
  (s=0, k=0, n=3, [0.00, 0.00, 0.00]) -> (s=0, k=0, n=4, [0.00, 0.00, 0.00])
No difference between direct/indirect transitions

Forces in eV/Ang:
  0 O     0.00000    0.00000    0.02880
  1 H     0.00000    0.08913   -0.04462
  2 H     0.00000   -0.08913   -0.04462

System changes: positions 

Initializing position-dependent things.

Density initialized from wave functions
       .------------------------.  
      /|                        |  
     / |                        |  
    /  |                        |  
   /   |                        |  
  /    |                        |  
 *     |                        |  
 |     |                        |  
 |     |                        |  
 |     |         O              |  
 |     |        H               |  
 |     |                        |  
 |     .------------------------.  
 |    /                        /   
 |   /                        /    
 |  /                        /     
 | /                        /      
 |/                        /       
 *------------------------*        

Positions:
   0 O      5.000000    5.000000    5.301035    ( 0.0000,  0.0000,  0.0000)
   1 H      5.000000    5.772152    4.697384    ( 0.0000,  0.0000,  0.0000)
   2 H      5.000000    4.227848    4.697384    ( 0.0000,  0.0000,  0.0000)

Unit cell:
           periodic     x           y           z      points  spacing
  1. axis:    no    10.000000    0.000000    0.000000    48     0.2083
  2. axis:    no     0.000000   10.000000    0.000000    48     0.2083
  3. axis:    no     0.000000    0.000000   10.000000    48     0.2083

  Lengths:  10.000000  10.000000  10.000000
  Angles:   90.000000  90.000000  90.000000

Effective grid spacing dv^(1/3) = 0.2083

     iter     time        total  log10-change:
                         energy   eigst   dens
iter:   1 15:26:37   -14.655417   -1.75
iter:   2 15:26:37   -14.654644   -2.72  -2.41
iter:   3 15:26:37   -14.654394c  -2.43  -2.57
iter:   4 15:26:37   -14.654371c  -2.70  -2.90
iter:   5 15:26:38   -14.654318c  -3.68  -3.02
iter:   6 15:26:38   -14.654317c  -3.71  -3.43
iter:   7 15:26:38   -14.654316c  -5.02  -3.77
iter:   8 15:26:38   -14.654318c  -5.02  -3.90
iter:   9 15:26:38   -14.654317c  -4.98  -3.93
iter:  10 15:26:39   -14.654317c  -5.70  -4.14c
iter:  11 15:26:39   -14.654317c  -5.95  -4.60c
iter:  12 15:26:39   -14.654317c  -7.17  -4.77c
iter:  13 15:26:39   -14.654317c  -7.61c -5.00c

Converged after 13 iterations.

Dipole moment: (0.000000, 0.000000, -0.380169) |e|*Ang

Energy contributions relative to reference atoms: (reference = -2065.832626)

Kinetic:        +15.923590
Potential:      -18.868293
External:        +0.000000
XC:             -12.428449
Entropy (-ST):   +0.000000
Local:           +0.718835
SIC:             +0.000000
--------------------------
Free energy:    -14.654317
Extrapolated:   -14.654317

 Band  Eigenvalues  Occupancy
    0    -25.09377    2.00000
    1    -12.97065    2.00000
    2     -9.32864    2.00000
    3     -7.22475    2.00000
    4     -0.89030    0.00000
    5      0.80249    0.00000

Fermi level: -4.05752

Gap: 6.334 eV
Transition (v -> c):
  (s=0, k=0, n=3, [0.00, 0.00, 0.00]) -> (s=0, k=0, n=4, [0.00, 0.00, 0.00])
No difference between direct/indirect transitions

Forces in eV/Ang:
  0 O     0.00000    0.00000   -0.60552
  1 H     0.00000   -0.36719    0.26607
  2 H     0.00000    0.36719    0.26607

System changes: positions 

Initializing position-dependent things.

Density initialized from wave functions
       .------------------------.  
      /|                        |  
     / |                        |  
    /  |                        |  
   /   |                        |  
  /    |                        |  
 *     |                        |  
 |     |                        |  
 |     |                        |  
 |     |         O              |  
 |     |        H               |  
 |     |                        |  
 |     .------------------------.  
 |    /                        /   
 |   /                        /    
 |  /                        /     
 | /                        /      
 |/                        /       
 *------------------------*        

Positions:
   0 O      5.000000    5.000000    5.298611    ( 0.0000,  0.0000,  0.0000)
   1 H      5.000000    5.764652    4.701138    ( 0.0000,  0.0000,  0.0000)
   2 H      5.000000    4.235348    4.701138    ( 0.0000,  0.0000,  0.0000)

Unit cell:
           periodic     x           y           z      points  spacing
  1. axis:    no    10.000000    0.000000    0.000000    48     0.2083
  2. axis:    no     0.000000   10.000000    0.000000    48     0.2083
  3. axis:    no     0.000000    0.000000   10.000000    48     0.2083

  Lengths:  10.000000  10.000000  10.000000
  Angles:   90.000000  90.000000  90.000000

Effective grid spacing dv^(1/3) = 0.2083

     iter     time        total  log10-change:
                         energy   eigst   dens
iter:   1 15:26:39   -14.659635   -1.90
iter:   2 15:26:39   -14.659064   -2.85  -2.48
iter:   3 15:26:40   -14.658896c  -2.59  -2.65
iter:   4 15:26:40   -14.658982c  -2.66  -2.97
iter:   5 15:26:40   -14.658838c  -3.24  -2.86
iter:   6 15:26:40   -14.658843c  -3.40  -3.49
iter:   7 15:26:40   -14.658842c  -4.82  -3.79
iter:   8 15:26:40   -14.658843c  -4.81  -3.91
iter:   9 15:26:41   -14.658842c  -4.94  -3.86
iter:  10 15:26:41   -14.658842c  -6.08  -4.19c
iter:  11 15:26:41   -14.658842c  -6.47  -4.62c
iter:  12 15:26:41   -14.658842c  -6.90  -4.96c
iter:  13 15:26:41   -14.658842c  -7.50c -5.09c

Converged after 13 iterations.

Dipole moment: (0.000000, 0.000000, -0.379383) |e|*Ang

Energy contributions relative to reference atoms: (reference = -2065.832626)

Kinetic:        +16.845860
Potential:      -19.552311
External:        +0.000000
XC:             -12.673509
Entropy (-ST):   +0.000000
Local:           +0.721117
SIC:             +0.000000
--------------------------
Free energy:    -14.658842
Extrapolated:   -14.658842

 Band  Eigenvalues  Occupancy
    0    -25.20066    2.00000
    1    -13.06061    2.00000
    2     -9.34246    2.00000
    3     -7.24509    2.00000
    4     -0.85699    0.00000
    5      0.83155    0.00000

Fermi level: -4.05104

Gap: 6.388 eV
Transition (v -> c):
  (s=0, k=0, n=3, [0.00, 0.00, 0.00]) -> (s=0, k=0, n=4, [0.00, 0.00, 0.00])
No difference between direct/indirect transitions

Forces in eV/Ang:
  0 O     0.00000    0.00000   -0.07434
  1 H    -0.00000    0.01497    0.00613
  2 H     0.00000   -0.01497    0.00613

System changes: positions 

Initializing position-dependent things.

Density initialized from wave functions
       .------------------------.  
      /|                        |  
     / |                        |  
    /  |                        |  
   /   |                        |  
  /    |                        |  
 *     |                        |  
 |     |                        |  
 |     |                        |  
 |     |         O              |  
 |     |        H               |  
 |     |                        |  
 |     .------------------------.  
 |    /                        /   
 |   /                        /    
 |  /                        /     
 | /                        /      
 |/                        /       
 *------------------------*        

Positions:
   0 O      5.000000    5.000000    5.292027    ( 0.0000,  0.0000,  0.0000)
   1 H      5.000000    5.768754    4.700445    ( 0.0000,  0.0000,  0.0000)
   2 H      5.000000    4.231246    4.700445    ( 0.0000,  0.0000,  0.0000)

Unit cell:
           periodic     x           y           z      points  spacing
  1. axis:    no    10.000000    0.000000    0.000000    48     0.2083
  2. axis:    no     0.000000   10.000000    0.000000    48     0.2083
  3. axis:    no     0.000000    0.000000   10.000000    48     0.2083

  Lengths:  10.000000  10.000000  10.000000
  Angles:   90.000000  90.000000  90.000000

Effective grid spacing dv^(1/3) = 0.2083

     iter     time        total  log10-change:
                         energy   eigst   dens
iter:   1 15:26:42   -14.658989   -2.11
iter:   2 15:26:42   -14.658928   -2.80  -2.78
iter:   3 15:26:42   -14.658929c  -2.87  -2.95
iter:   4 15:26:42   -14.658936c  -3.59  -3.18
iter:   5 15:26:42   -14.658924c  -4.12  -3.35
iter:   6 15:26:42   -14.658925c  -4.36  -3.88
iter:   7 15:26:43   -14.658924c  -5.65  -4.13c
iter:   8 15:26:43   -14.658925c  -5.45  -4.28c
iter:   9 15:26:43   -14.658924c  -5.17  -4.02c
iter:  10 15:26:43   -14.658924c  -6.33  -4.39c
iter:  11 15:26:43   -14.658924c  -6.67  -4.86c
iter:  12 15:26:43   -14.658924c  -7.98c -5.39c

Converged after 12 iterations.

Dipole moment: (0.000000, 0.000000, -0.376773) |e|*Ang

Energy contributions relative to reference atoms: (reference = -2065.832626)

Kinetic:        +16.836072
Potential:      -19.534502
External:        +0.000000
XC:             -12.679184
Entropy (-ST):   +0.000000
Local:           +0.718689
SIC:             +0.000000
--------------------------
Free energy:    -14.658924
Extrapolated:   -14.658924

 Band  Eigenvalues  Occupancy
    0    -25.18873    2.00000
    1    -13.10438    2.00000
    2     -9.30104    2.00000
    3     -7.24163    2.00000
    4     -0.85287    0.00000
    5      0.83050    0.00000

Fermi level: -4.04725

Gap: 6.389 eV
Transition (v -> c):
  (s=0, k=0, n=3, [0.00, 0.00, 0.00]) -> (s=0, k=0, n=4, [0.00, 0.00, 0.00])
No difference between direct/indirect transitions

Forces in eV/Ang:
  0 O     0.00000    0.00000    0.04726
  1 H     0.00000   -0.02613   -0.04090
  2 H     0.00000    0.02613   -0.04090

System changes: positions 

Initializing position-dependent things.

Density initialized from wave functions
       .------------------------.  
      /|                        |  
     / |                        |  
    /  |                        |  
   /   |                        |  
  /    |                        |  
 *     |                        |  
 |     |                        |  
 |     |                        |  
 |     |         O              |  
 |     |        H               |  
 |     |                        |  
 |     .------------------------.  
 |    /                        /   
 |   /                        /    
 |  /                        /     
 | /                        /      
 |/                        /       
 *------------------------*        

Positions:
   0 O      5.000000    5.000000    5.294905    ( 0.0000,  0.0000,  0.0000)
   1 H      5.000000    5.766961    4.700748    ( 0.0000,  0.0000,  0.0000)
   2 H      5.000000    4.233039    4.700748    ( 0.0000,  0.0000,  0.0000)

Unit cell:
           periodic     x           y           z      points  spacing
  1. axis:    no    10.000000    0.000000    0.000000    48     0.2083
  2. axis:    no     0.000000   10.000000    0.000000    48     0.2083
  3. axis:    no     0.000000    0.000000   10.000000    48     0.2083

  Lengths:  10.000000  10.000000  10.000000
  Angles:   90.000000  90.000000  90.000000

Effective grid spacing dv^(1/3) = 0.2083

     iter     time        total  log10-change:
                         energy   eigst   dens
iter:   1 15:26:44   -14.659034   -2.83
iter:   2 15:26:44   -14.659023   -3.52  -3.14
iter:   3 15:26:44   -14.659023c  -3.58  -3.32
iter:   4 15:26:44   -14.659024c  -4.29  -3.54
iter:   5 15:26:44   -14.659022c  -4.84  -3.71
iter:   6 15:26:44   -14.659022c  -5.08  -4.23c
iter:   7 15:26:45   -14.659022c  -6.38  -4.49c
iter:   8 15:26:45   -14.659022c  -6.15  -4.64c
iter:   9 15:26:45   -14.659022c  -5.86  -4.36c
iter:  10 15:26:45   -14.659022c  -7.05  -4.75c
iter:  11 15:26:45   -14.659022c  -7.41c -5.21c

Converged after 11 iterations.

Dipole moment: (0.000000, 0.000000, -0.377923) |e|*Ang

Energy contributions relative to reference atoms: (reference = -2065.832626)

Kinetic:        +16.840875
Potential:      -19.542829
External:        +0.000000
XC:             -12.676872
Entropy (-ST):   +0.000000
Local:           +0.719804
SIC:             +0.000000
--------------------------
Free energy:    -14.659022
Extrapolated:   -14.659022

 Band  Eigenvalues  Occupancy
    0    -25.19401    2.00000
    1    -13.08536    2.00000
    2     -9.31912    2.00000
    3     -7.24314    2.00000
    4     -0.85463    0.00000
    5      0.83097    0.00000

Fermi level: -4.04889

Gap: 6.389 eV
Transition (v -> c):
  (s=0, k=0, n=3, [0.00, 0.00, 0.00]) -> (s=0, k=0, n=4, [0.00, 0.00, 0.00])
No difference between direct/indirect transitions

Forces in eV/Ang:
  0 O     0.00000    0.00000   -0.00843
  1 H     0.00000   -0.00787   -0.02060
  2 H     0.00000    0.00787   -0.02060

Timing:                                      incl.     excl.
-------------------------------------------------------------------
Density initialized from wave functions:     0.020     0.014   0.0% |
 Symmetrize density:                         0.006     0.006   0.0% |
Forces:                                      0.019     0.019   0.0% |
Hamiltonian:                                 0.599     0.000   0.0% |
 Atomic:                                     0.068     0.001   0.0% |
  XC Correction:                             0.067     0.067   0.1% |
 Calculate atomic Hamiltonians:              0.001     0.001   0.0% |
 Communicate:                                0.000     0.000   0.0% |
 Hartree integrate/restrict:                 0.013     0.013   0.0% |
 Initialize Hamiltonian:                     0.000     0.000   0.0% |
 Poisson:                                    0.163     0.009   0.0% |
  Communicate from 1D:                       0.019     0.019   0.0% |
  Communicate from 2D:                       0.021     0.021   0.0% |
  Communicate to 1D:                         0.020     0.020   0.0% |
  Communicate to 2D:                         0.019     0.019   0.0% |
  FFT 1D:                                    0.022     0.022   0.0% |
  FFT 2D:                                    0.053     0.053   0.0% |
 XC 3D grid:                                 0.351     0.351   0.3% |
 vbar:                                       0.003     0.003   0.0% |
LCAO initialization:                         0.010     0.006   0.0% |
 LCAO eigensolver:                           0.002     0.000   0.0% |
  Calculate projections:                     0.000     0.000   0.0% |
  DenseAtomicCorrection:                     0.000     0.000   0.0% |
  Distribute overlap matrix:                 0.000     0.000   0.0% |
  Orbital Layouts:                           0.000     0.000   0.0% |
  Potential matrix:                          0.001     0.001   0.0% |
 LCAO to grid:                               0.002     0.002   0.0% |
 Set positions (LCAO WFS):                   0.001     0.000   0.0% |
  Basic WFS set positions:                   0.000     0.000   0.0% |
  Basis functions set positions:             0.000     0.000   0.0% |
  P tci:                                     0.000     0.000   0.0% |
  ST tci:                                    0.000     0.000   0.0% |
  mktci:                                     0.000     0.000   0.0% |
Redistribute:                                0.000     0.000   0.0% |
SCF-cycle:                                  10.841     0.017   0.0% |
 Davidson:                                   3.447     1.153   1.0% |
  Apply hamiltonian:                         0.349     0.349   0.3% |
  Subspace diag:                             0.516     0.001   0.0% |
   calc_h_matrix:                            0.420     0.085   0.1% |
    Apply hamiltonian:                       0.334     0.334   0.3% |
   diagonalize:                              0.004     0.004   0.0% |
   rotate_psi:                               0.091     0.091   0.1% |
  calc. matrices:                            1.268     0.606   0.5% |
   Apply hamiltonian:                        0.662     0.662   0.6% |
  diagonalize:                               0.007     0.007   0.0% |
  rotate_psi:                                0.154     0.154   0.1% |
 Density:                                    0.344     0.000   0.0% |
  Atomic density matrices:                   0.010     0.010   0.0% |
  Mix:                                       0.223     0.223   0.2% |
  Multipole moments:                         0.002     0.002   0.0% |
  Pseudo density:                            0.110     0.011   0.0% |
   Symmetrize density:                       0.099     0.099   0.1% |
 Hamiltonian:                                7.025     0.001   0.0% |
  Atomic:                                    0.823     0.010   0.0% |
   XC Correction:                            0.813     0.813   0.7% |
  Calculate atomic Hamiltonians:             0.014     0.014   0.0% |
  Communicate:                               0.000     0.000   0.0% |
  Hartree integrate/restrict:                0.147     0.147   0.1% |
  Poisson:                                   1.876     0.094   0.1% |
   Communicate from 1D:                      0.231     0.231   0.2% |
   Communicate from 2D:                      0.230     0.230   0.2% |
   Communicate to 1D:                        0.234     0.234   0.2% |
   Communicate to 2D:                        0.227     0.227   0.2% |
   FFT 1D:                                   0.250     0.250   0.2% |
   FFT 2D:                                   0.610     0.610   0.5% |
  XC 3D grid:                                4.140     4.140   3.5% ||
  vbar:                                      0.024     0.024   0.0% |
 Orthonormalize:                             0.008     0.000   0.0% |
  calc_s_matrix:                             0.005     0.005   0.0% |
  inverse-cholesky:                          0.000     0.000   0.0% |
  projections:                               0.001     0.001   0.0% |
  rotate_psi_s:                              0.003     0.003   0.0% |
Set symmetry:                                0.000     0.000   0.0% |
Other:                                     105.156   105.156  90.1% |-----------------------------------|
-------------------------------------------------------------------
Total:                                               116.646 100.0%

Date: Tue Feb  4 15:28:30 2025
