
  ___ ___ ___ _ _ _  
 |   |   |_  | | | | 
 | | | | | . | | | | 
 |__ |  _|___|_____|  25.1.0
 |___|_|             

User:   zoe@Zoes-MacBook-Air.local
Date:   Tue Feb  4 15:28:13 2025
Arch:   arm64
Pid:    79289
CWD:    /Users/zoe/Documents/Python/TIF320_Computitional_molecular_physics
Python: 3.12.2
gpaw:   /opt/anaconda3/envs/tif320env/lib/python3.12/site-packages/gpaw
_gpaw:  /opt/anaconda3/envs/tif320env/lib/python3.12/site-packages/
        _gpaw.cpython-312-darwin.so
ase:    /opt/anaconda3/envs/tif320env/lib/python3.12/site-packages/ase (version 3.24.0)
numpy:  /opt/anaconda3/envs/tif320env/lib/python3.12/site-packages/numpy (version 2.0.1)
scipy:  /opt/anaconda3/envs/tif320env/lib/python3.12/site-packages/scipy (version 1.15.1)
libxc:  7.0.0
units:  Angstrom and eV
cores: 1
OpenMP: False
OMP_NUM_THREADS: 1

Input parameters:
  mode: {ecut: 350.0,
         name: pw}

System changes: positions, numbers, cell, pbc, initial_charges, initial_magmoms 

Initialize ...

species:
  O:
    name: Oxygen
    id: 9b9d51c344dea68c822856295a461509
    Z: 8.0
    valence: 6
    core: 2
    charge: 0.0
    file: /opt/anaconda3/envs/tif320env/gpaw-setups/gpaw-setups-24.11.0/O.LDA.gz
    compensation charges: {type: gauss,
                           rc: 0.21,
                           lmax: 2}
    cutoffs: {filter: 1.17,
              core: 0.83}
    projectors:
      #              energy  rcut
      - 2s(2.00)   -23.752   0.688
      - 2p(4.00)    -9.195   0.598
      -  s           3.459   0.688
      -  p          18.016   0.598
      -  d           0.000   0.619
  
    # Using partial waves for O as LCAO basis

  H:
    name: Hydrogen
    id: 4766778ce56282eaa64abeb28b7c1de3
    Z: 1.0
    valence: 1
    core: 0
    charge: 0.0
    file: /opt/anaconda3/envs/tif320env/gpaw-setups/gpaw-setups-24.11.0/H.LDA.gz
    compensation charges: {type: gauss,
                           rc: 0.15,
                           lmax: 2}
    cutoffs: {filter: 0.85,
              core: 0.53}
    projectors:
      #              energy  rcut
      - 1s(1.00)    -6.353   0.476
      -  s          20.858   0.476
      -  p           0.000   0.476
  
    # Using partial waves for H as LCAO basis

Reference energy: -2052.165985  # eV

Spin-paired calculation

Convergence criteria:
 Maximum [total energy] change in last 3 cyles: 0.0005 eV / valence electron
 Maximum integral of absolute [dens]ity change: 0.0001 electrons / valence electron
 Maximum integral of absolute [eigenst]ate change: 4e-08 eV^2 / valence electron
 Maximum number of scf [iter]ations: 333
 (Square brackets indicate name in SCF output, whereas a 'c' in
 the SCF output indicates the quantity has converged.)

Symmetries present (total): 4

  ( 1  0  0)  ( 1  0  0)  (-1  0  0)  (-1  0  0)
  ( 0  1  0)  ( 0 -1  0)  ( 0  1  0)  ( 0 -1  0)
  ( 0  0  1)  ( 0  0  1)  ( 0  0  1)  ( 0  0  1)

1 k-point (Gamma)
1 k-point in the irreducible part of the Brillouin zone
       k-points in crystal coordinates                weights
   0:     0.00000000    0.00000000    0.00000000          1/1

Wave functions: Plane wave expansion
  Cutoff energy: 350.000 eV
  Number of coefficients: 7521 (reduced to 3761)
  Pulay-stress correction: 0.000000 eV/Ang^3 (de/decut=0.000000)
  Using Numpy's FFT
  ScaLapack parameters: grid=1x1, blocksize=None
  Wavefunction extrapolation:
    Improved wavefunction reuse through dual PAW basis 

Occupation numbers: # Zero width 

Eigensolver
   Davidson(niter=2) 

Densities:
  Coarse grid: 35*35*35 grid
  Fine grid: 70*70*70 grid
  Total Charge: 0.000000 

Density mixing:
  Method: separate
  Backend: pulay
  Linear mixing parameter: 0.05
  old densities: 5
  Damping of long wavelength oscillations: 50 

Hamiltonian:
  XC and Coulomb potentials evaluated on a 70*70*70 grid
  Using the LDA Exchange-Correlation functional
  External potential:
    NoExternalPotential
 

Memory estimate:
  Process memory now: 856.66 MiB
  Calculator: 30.05 MiB
    Density: 21.88 MiB
      Arrays: 8.50 MiB
      Localized functions: 10.11 MiB
      Mixer: 3.27 MiB
    Hamiltonian: 5.81 MiB
      Arrays: 5.56 MiB
      XC: 0.00 MiB
      Poisson: 0.00 MiB
      vbar: 0.25 MiB
    Wavefunctions: 2.36 MiB
      Arrays psit_nG: 0.34 MiB
      Eigensolver: 0.63 MiB
      Projections: 0.00 MiB
      Projectors: 0.49 MiB
      PW-descriptor: 0.89 MiB

Total number of cores used: 1

Number of atoms: 3
Number of atomic orbitals: 6
Number of bands in calculation: 6
Number of valence electrons: 8
Bands to converge: occupied

... initialized

Initializing position-dependent things.

Density initialized from atomic densities
Creating initial wave functions:
  6 bands from LCAO basis set

      .-------------------.  
     /|                   |  
    / |                   |  
   /  |                   |  
  /   |                   |  
 *    |                   |  
 |    |                   |  
 |    |       O           |  
 |    |      H            |  
 |    |                   |  
 |    .-------------------.  
 |   /                   /   
 |  /                   /    
 | /                   /     
 |/                   /      
 *-------------------*       

Positions:
   0 O      4.000000    4.000000    4.298154    ( 0.0000,  0.0000,  0.0000)
   1 H      4.000000    4.763239    3.701846    ( 0.0000,  0.0000,  0.0000)
   2 H      4.000000    3.236761    3.701846    ( 0.0000,  0.0000,  0.0000)

Unit cell:
           periodic     x           y           z      points  spacing
  1. axis:    no     8.000000    0.000000    0.000000    35     0.2286
  2. axis:    no     0.000000    8.000000    0.000000    35     0.2286
  3. axis:    no     0.000000    0.000000    8.000000    35     0.2286

  Lengths:   8.000000   8.000000   8.000000
  Angles:   90.000000  90.000000  90.000000

Effective grid spacing dv^(1/3) = 0.2286

     iter     time        total  log10-change:
                         energy   eigst   dens
iter:   1 15:28:13   -12.330550
iter:   2 15:28:13   -12.062081   -1.26  -0.71
iter:   3 15:28:13   -11.074140   -0.78  -0.74
iter:   4 15:28:13   -11.029875   -1.29  -1.04
iter:   5 15:28:13   -10.946848   -1.57  -1.13
iter:   6 15:28:13   -10.919707   -1.63  -1.56
iter:   7 15:28:13   -10.920620   -2.70  -2.06
iter:   8 15:28:13   -10.922111c  -3.15  -1.99
iter:   9 15:28:13   -10.920031c  -3.86  -1.94
iter:  10 15:28:13   -10.919565c  -4.43  -2.10
iter:  11 15:28:13   -10.919147c  -4.80  -2.16
iter:  12 15:28:13   -10.917732c  -3.55  -2.21
iter:  13 15:28:13   -10.917631c  -3.74  -2.66
iter:  14 15:28:13   -10.917634c  -5.00  -3.32
iter:  15 15:28:14   -10.917635c  -5.53  -3.37
iter:  16 15:28:14   -10.917634c  -6.28  -3.42
iter:  17 15:28:14   -10.917635c  -6.02  -3.54
iter:  18 15:28:14   -10.917635c  -7.05  -3.61
iter:  19 15:28:14   -10.917635c  -7.16  -3.68
iter:  20 15:28:14   -10.917635c  -7.55c -3.79
iter:  21 15:28:14   -10.917636c  -6.31  -3.87
iter:  22 15:28:14   -10.917635c  -6.71  -3.98
iter:  23 15:28:14   -10.917635c  -8.38c -4.07c

Converged after 23 iterations.

Dipole moment: (0.000000, 0.000000, -0.378194) |e|*Ang

Energy contributions relative to reference atoms: (reference = -2052.165985)

Kinetic:         -1.453719
Potential:       +2.635092
External:        +0.000000
XC:             -11.982398
Entropy (-ST):   +0.000000
Local:           -0.116610
SIC:             +0.000000
--------------------------
Free energy:    -10.917635
Extrapolated:   -10.917635

 Band  Eigenvalues  Occupancy
    0    -25.55659    2.00000
    1    -12.90549    2.00000
    2     -9.27632    2.00000
    3     -7.10804    2.00000
    4     -1.05391    0.00000
    5      1.30867    0.00000

Fermi level: -4.08098

Gap: 6.054 eV
Transition (v -> c):
  (s=0, k=0, n=3, [0.00, 0.00, 0.00]) -> (s=0, k=0, n=4, [0.00, 0.00, 0.00])
No difference between direct/indirect transitions
Timing:                              incl.     excl.
-----------------------------------------------------------
Hamiltonian:                         0.020     0.000   0.0% |
 Atomic:                             0.004     0.000   0.0% |
  XC Correction:                     0.004     0.004   0.3% |
 Calculate atomic Hamiltonians:      0.003     0.003   0.3% |
 Communicate:                        0.000     0.000   0.0% |
 Initialize Hamiltonian:             0.000     0.000   0.0% |
 Poisson:                            0.000     0.000   0.0% |
 XC 3D grid:                         0.011     0.011   0.9% |
LCAO initialization:                 0.012     0.006   0.5% |
 LCAO eigensolver:                   0.001     0.000   0.0% |
  Calculate projections:             0.000     0.000   0.0% |
  DenseAtomicCorrection:             0.000     0.000   0.0% |
  Distribute overlap matrix:         0.000     0.000   0.0% |
  Orbital Layouts:                   0.000     0.000   0.0% |
  Potential matrix:                  0.001     0.001   0.1% |
 LCAO to grid:                       0.002     0.002   0.2% |
 Set positions (LCAO WFS):           0.002     0.000   0.0% |
  Basic WFS set positions:           0.000     0.000   0.0% |
  Basis functions set positions:     0.000     0.000   0.0% |
  P tci:                             0.000     0.000   0.0% |
  ST tci:                            0.001     0.001   0.0% |
  mktci:                             0.001     0.001   0.1% |
PWDescriptor:                        0.001     0.001   0.0% |
SCF-cycle:                           1.124     0.003   0.3% |
 Davidson:                           0.427     0.051   4.2% |-|
  Apply H:                           0.080     0.078   6.5% |--|
   HMM T:                            0.001     0.001   0.1% |
  Subspace diag:                     0.097     0.000   0.0% |
   calc_h_matrix:                    0.094     0.003   0.3% |
    Apply H:                         0.091     0.090   7.5% |--|
     HMM T:                          0.001     0.001   0.1% |
   diagonalize:                      0.001     0.001   0.1% |
   rotate_psi:                       0.002     0.002   0.1% |
  calc. matrices:                    0.195     0.017   1.4% ||
   Apply H:                          0.178     0.177  14.6% |-----|
    HMM T:                           0.002     0.002   0.1% |
  diagonalize:                       0.002     0.002   0.1% |
  rotate_psi:                        0.003     0.003   0.2% |
 Density:                            0.240     0.000   0.0% |
  Atomic density matrices:           0.003     0.003   0.2% |
  Mix:                               0.180     0.180  14.9% |-----|
  Multipole moments:                 0.001     0.001   0.0% |
  Pseudo density:                    0.057     0.044   3.6% ||
   Symmetrize density:               0.013     0.013   1.1% |
 Hamiltonian:                        0.453     0.015   1.2% |
  Atomic:                            0.096     0.003   0.3% |
   XC Correction:                    0.093     0.093   7.7% |--|
  Calculate atomic Hamiltonians:     0.082     0.082   6.8% |--|
  Communicate:                       0.000     0.000   0.0% |
  Poisson:                           0.005     0.005   0.4% |
  XC 3D grid:                        0.256     0.256  21.2% |-------|
 Orthonormalize:                     0.000     0.000   0.0% |
  calc_s_matrix:                     0.000     0.000   0.0% |
  inverse-cholesky:                  0.000     0.000   0.0% |
  projections:                       0.000     0.000   0.0% |
  rotate_psi_s:                      0.000     0.000   0.0% |
Set symmetry:                        0.000     0.000   0.0% |
Other:                               0.051     0.051   4.2% |-|
-----------------------------------------------------------
Total:                                         1.208 100.0%

Memory usage: 856.66 MiB
Date: Tue Feb  4 15:28:14 2025
