
  ___ ___ ___ _ _ _  
 |   |   |_  | | | | 
 | | | | | . | | | | 
 |__ |  _|___|_____|  25.1.0
 |___|_|             

User:   zoe@Zoes-MacBook-Air.local
Date:   Tue Feb  4 15:27:59 2025
Arch:   arm64
Pid:    79289
CWD:    /Users/zoe/Documents/Python/TIF320_Computitional_molecular_physics
Python: 3.12.2
gpaw:   /opt/anaconda3/envs/tif320env/lib/python3.12/site-packages/gpaw
_gpaw:  /opt/anaconda3/envs/tif320env/lib/python3.12/site-packages/
        _gpaw.cpython-312-darwin.so
ase:    /opt/anaconda3/envs/tif320env/lib/python3.12/site-packages/ase (version 3.24.0)
numpy:  /opt/anaconda3/envs/tif320env/lib/python3.12/site-packages/numpy (version 2.0.1)
scipy:  /opt/anaconda3/envs/tif320env/lib/python3.12/site-packages/scipy (version 1.15.1)
libxc:  7.0.0
units:  Angstrom and eV
cores: 1
OpenMP: False
OMP_NUM_THREADS: 1

Input parameters:
  h: 0.24
  mode: fd

System changes: positions, numbers, cell, pbc, initial_charges, initial_magmoms 

Initialize ...

species:
  O:
    name: Oxygen
    id: 9b9d51c344dea68c822856295a461509
    Z: 8.0
    valence: 6
    core: 2
    charge: 0.0
    file: /opt/anaconda3/envs/tif320env/gpaw-setups/gpaw-setups-24.11.0/O.LDA.gz
    compensation charges: {type: gauss,
                           rc: 0.21,
                           lmax: 2}
    cutoffs: {filter: 1.17,
              core: 0.83}
    projectors:
      #              energy  rcut
      - 2s(2.00)   -23.752   0.688
      - 2p(4.00)    -9.195   0.598
      -  s           3.459   0.688
      -  p          18.016   0.598
      -  d           0.000   0.619
  
    # Using partial waves for O as LCAO basis

  H:
    name: Hydrogen
    id: 4766778ce56282eaa64abeb28b7c1de3
    Z: 1.0
    valence: 1
    core: 0
    charge: 0.0
    file: /opt/anaconda3/envs/tif320env/gpaw-setups/gpaw-setups-24.11.0/H.LDA.gz
    compensation charges: {type: gauss,
                           rc: 0.15,
                           lmax: 2}
    cutoffs: {filter: 0.85,
              core: 0.53}
    projectors:
      #              energy  rcut
      - 1s(1.00)    -6.353   0.476
      -  s          20.858   0.476
      -  p           0.000   0.476
  
    # Using partial waves for H as LCAO basis

Reference energy: -2052.165985  # eV

Spin-paired calculation

Convergence criteria:
 Maximum [total energy] change in last 3 cyles: 0.0005 eV / valence electron
 Maximum integral of absolute [dens]ity change: 0.0001 electrons / valence electron
 Maximum integral of absolute [eigenst]ate change: 4e-08 eV^2 / valence electron
 Maximum number of scf [iter]ations: 333
 (Square brackets indicate name in SCF output, whereas a 'c' in
 the SCF output indicates the quantity has converged.)

Symmetries present (total): 4

  ( 1  0  0)  ( 1  0  0)  (-1  0  0)  (-1  0  0)
  ( 0  1  0)  ( 0 -1  0)  ( 0  1  0)  ( 0 -1  0)
  ( 0  0  1)  ( 0  0  1)  ( 0  0  1)  ( 0  0  1)

1 k-point (Gamma)
1 k-point in the irreducible part of the Brillouin zone
       k-points in crystal coordinates                weights
   0:     0.00000000    0.00000000    0.00000000          1/1

Wave functions: Uniform real-space grid
  Kinetic energy operator: 6*3+1=19 point O(h^6) finite-difference Laplacian
  ScaLapack parameters: grid=1x1, blocksize=None
  Wavefunction extrapolation:
    Improved wavefunction reuse through dual PAW basis 

Occupation numbers: # Zero width 

Eigensolver
   Davidson(niter=2) 

Densities:
  Coarse grid: 32*32*32 grid
  Fine grid: 64*64*64 grid
  Total Charge: 0.000000 

Density mixing:
  Method: separate
  Backend: pulay
  Linear mixing parameter: 0.25
  old densities: 3
  Damping of long wavelength oscillations: 1  # (no daming) 

Hamiltonian:
  XC and Coulomb potentials evaluated on a 64*64*64 grid
  Using the LDA Exchange-Correlation functional
  Interpolation: tri-quintic (5. degree polynomial)
  Poisson solver: FastPoissonSolver using
    Stencil: 6*3+1=19 point O(h^6) finite-difference Laplacian
    FFT axes: []
    FST axes: [np.int64(0), np.int64(1), np.int64(2)]
 

Memory estimate:
  Process memory now: 856.66 MiB
  Calculator: 16.19 MiB
    Density: 8.18 MiB
      Arrays: 6.18 MiB
      Localized functions: 0.64 MiB
      Mixer: 1.36 MiB
    Hamiltonian: 4.09 MiB
      Arrays: 4.04 MiB
      XC: 0.00 MiB
      Poisson: 0.00 MiB
      vbar: 0.05 MiB
    Wavefunctions: 3.92 MiB
      Arrays psit_nG: 1.36 MiB
      Eigensolver: 2.50 MiB
      Projections: 0.00 MiB
      Projectors: 0.05 MiB

Total number of cores used: 1

Number of atoms: 3
Number of atomic orbitals: 6
Number of bands in calculation: 6
Number of valence electrons: 8
Bands to converge: occupied

... initialized

Initializing position-dependent things.

Density initialized from atomic densities
Creating initial wave functions:
  6 bands from LCAO basis set

      .-------------------.  
     /|                   |  
    / |                   |  
   /  |                   |  
  /   |                   |  
 *    |                   |  
 |    |                   |  
 |    |       O           |  
 |    |      H            |  
 |    |                   |  
 |    .-------------------.  
 |   /                   /   
 |  /                   /    
 | /                   /     
 |/                   /      
 *-------------------*       

Positions:
   0 O      4.000000    4.000000    4.298154    ( 0.0000,  0.0000,  0.0000)
   1 H      4.000000    4.763239    3.701846    ( 0.0000,  0.0000,  0.0000)
   2 H      4.000000    3.236761    3.701846    ( 0.0000,  0.0000,  0.0000)

Unit cell:
           periodic     x           y           z      points  spacing
  1. axis:    no     8.000000    0.000000    0.000000    32     0.2500
  2. axis:    no     0.000000    8.000000    0.000000    32     0.2500
  3. axis:    no     0.000000    0.000000    8.000000    32     0.2500

  Lengths:   8.000000   8.000000   8.000000
  Angles:   90.000000  90.000000  90.000000

Effective grid spacing dv^(1/3) = 0.2500

     iter     time        total  log10-change:
                         energy   eigst   dens
iter:   1 15:27:59   -17.770801
iter:   2 15:27:59   -15.793501   +0.53  -0.68
iter:   3 15:27:59   -15.579541   +0.28  -0.97
iter:   4 15:28:00   -15.546216   -0.75  -1.16
iter:   5 15:28:00   -15.523936   -1.20  -1.66
iter:   6 15:28:00   -15.524034   -1.54  -2.37
iter:   7 15:28:00   -15.524071c  -2.60  -2.47
iter:   8 15:28:00   -15.524382c  -2.88  -2.56
iter:   9 15:28:00   -15.524155c  -2.91  -2.71
iter:  10 15:28:00   -15.524110c  -3.60  -2.74
iter:  11 15:28:00   -15.524112c  -4.19  -3.63
iter:  12 15:28:00   -15.524112c  -5.56  -3.86
iter:  13 15:28:00   -15.524112c  -5.48  -3.99
iter:  14 15:28:00   -15.524112c  -6.38  -4.04c
iter:  15 15:28:00   -15.524111c  -6.53  -4.10c
iter:  16 15:28:00   -15.524111c  -6.51  -4.37c
iter:  17 15:28:00   -15.524111c  -7.41c -4.95c

Converged after 17 iterations.

Dipole moment: (-0.000000, 0.000000, -0.398352) |e|*Ang

Energy contributions relative to reference atoms: (reference = -2052.165985)

Kinetic:        +18.891152
Potential:      -21.548692
External:        +0.000000
XC:             -13.820054
Entropy (-ST):   +0.000000
Local:           +0.953482
SIC:             +0.000000
--------------------------
Free energy:    -15.524111
Extrapolated:   -15.524111

 Band  Eigenvalues  Occupancy
    0    -24.95394    2.00000
    1    -13.12059    2.00000
    2     -9.38511    2.00000
    3     -7.39107    2.00000
    4     -0.59188    0.00000
    5      1.41480    0.00000

Fermi level: -3.99148

Gap: 6.799 eV
Transition (v -> c):
  (s=0, k=0, n=3, [0.00, 0.00, 0.00]) -> (s=0, k=0, n=4, [0.00, 0.00, 0.00])
No difference between direct/indirect transitions
Timing:                              incl.     excl.
-----------------------------------------------------------
Hamiltonian:                         0.020     0.000   0.0% |
 Atomic:                             0.004     0.000   0.0% |
  XC Correction:                     0.004     0.004   0.5% |
 Calculate atomic Hamiltonians:      0.000     0.000   0.0% |
 Communicate:                        0.000     0.000   0.0% |
 Hartree integrate/restrict:         0.001     0.001   0.1% |
 Initialize Hamiltonian:             0.000     0.000   0.0% |
 Poisson:                            0.008     0.001   0.1% |
  Communicate from 1D:               0.001     0.001   0.1% |
  Communicate from 2D:               0.001     0.001   0.1% |
  Communicate to 1D:                 0.001     0.001   0.1% |
  Communicate to 2D:                 0.001     0.001   0.1% |
  FFT 1D:                            0.001     0.001   0.1% |
  FFT 2D:                            0.002     0.002   0.3% |
 XC 3D grid:                         0.007     0.007   0.8% |
 vbar:                               0.000     0.000   0.0% |
LCAO initialization:                 0.009     0.006   0.7% |
 LCAO eigensolver:                   0.001     0.000   0.0% |
  Calculate projections:             0.000     0.000   0.0% |
  DenseAtomicCorrection:             0.000     0.000   0.0% |
  Distribute overlap matrix:         0.000     0.000   0.0% |
  Orbital Layouts:                   0.000     0.000   0.0% |
  Potential matrix:                  0.001     0.001   0.1% |
 LCAO to grid:                       0.001     0.001   0.1% |
 Set positions (LCAO WFS):           0.001     0.000   0.0% |
  Basic WFS set positions:           0.000     0.000   0.0% |
  Basis functions set positions:     0.000     0.000   0.0% |
  P tci:                             0.000     0.000   0.1% |
  ST tci:                            0.000     0.000   0.0% |
  mktci:                             0.000     0.000   0.0% |
SCF-cycle:                           0.695     0.003   0.4% |
 Davidson:                           0.319     0.125  15.9% |-----|
  Apply hamiltonian:                 0.028     0.028   3.6% ||
  Subspace diag:                     0.039     0.000   0.1% |
   calc_h_matrix:                    0.032     0.007   0.9% |
    Apply hamiltonian:               0.025     0.025   3.2% ||
   diagonalize:                      0.001     0.001   0.1% |
   rotate_psi:                       0.006     0.006   0.8% |
  calc. matrices:                    0.116     0.064   8.2% |--|
   Apply hamiltonian:                0.052     0.052   6.6% |--|
  diagonalize:                       0.001     0.001   0.2% |
  rotate_psi:                        0.008     0.008   1.0% |
 Density:                            0.045     0.000   0.0% |
  Atomic density matrices:           0.002     0.002   0.3% |
  Mix:                               0.031     0.031   4.0% |-|
  Multipole moments:                 0.000     0.000   0.1% |
  Pseudo density:                    0.011     0.001   0.1% |
   Symmetrize density:               0.010     0.010   1.3% ||
 Hamiltonian:                        0.327     0.000   0.0% |
  Atomic:                            0.069     0.002   0.3% |
   XC Correction:                    0.066     0.066   8.4% |--|
  Calculate atomic Hamiltonians:     0.003     0.003   0.3% |
  Communicate:                       0.000     0.000   0.0% |
  Hartree integrate/restrict:        0.014     0.014   1.7% ||
  Poisson:                           0.137     0.012   1.5% ||
   Communicate from 1D:              0.016     0.016   2.0% ||
   Communicate from 2D:              0.015     0.015   2.0% ||
   Communicate to 1D:                0.019     0.019   2.4% ||
   Communicate to 2D:                0.017     0.017   2.1% ||
   FFT 1D:                           0.018     0.018   2.3% ||
   FFT 2D:                           0.040     0.040   5.1% |-|
  XC 3D grid:                        0.104     0.104  13.2% |----|
  vbar:                              0.001     0.001   0.2% |
 Orthonormalize:                     0.000     0.000   0.0% |
  calc_s_matrix:                     0.000     0.000   0.0% |
  inverse-cholesky:                  0.000     0.000   0.0% |
  projections:                       0.000     0.000   0.0% |
  rotate_psi_s:                      0.000     0.000   0.0% |
Set symmetry:                        0.000     0.000   0.1% |
Other:                               0.062     0.062   7.9% |--|
-----------------------------------------------------------
Total:                                         0.787 100.0%

Memory usage: 856.66 MiB
Date: Tue Feb  4 15:28:00 2025
