
  ___ ___ ___ _ _ _  
 |   |   |_  | | | | 
 | | | | | . | | | | 
 |__ |  _|___|_____|  25.1.0
 |___|_|             

User:   zoe@Zoes-MacBook-Air.local
Date:   Tue Feb  4 15:28:07 2025
Arch:   arm64
Pid:    79289
CWD:    /Users/zoe/Documents/Python/TIF320_Computitional_molecular_physics
Python: 3.12.2
gpaw:   /opt/anaconda3/envs/tif320env/lib/python3.12/site-packages/gpaw
_gpaw:  /opt/anaconda3/envs/tif320env/lib/python3.12/site-packages/
        _gpaw.cpython-312-darwin.so
ase:    /opt/anaconda3/envs/tif320env/lib/python3.12/site-packages/ase (version 3.24.0)
numpy:  /opt/anaconda3/envs/tif320env/lib/python3.12/site-packages/numpy (version 2.0.1)
scipy:  /opt/anaconda3/envs/tif320env/lib/python3.12/site-packages/scipy (version 1.15.1)
libxc:  7.0.0
units:  Angstrom and eV
cores: 1
OpenMP: False
OMP_NUM_THREADS: 1

Input parameters:
  mode: {ecut: 250.0,
         name: pw}

System changes: positions, numbers, cell, pbc, initial_charges, initial_magmoms 

Initialize ...

species:
  H:
    name: Hydrogen
    id: 4766778ce56282eaa64abeb28b7c1de3
    Z: 1.0
    valence: 1
    core: 0
    charge: 0.0
    file: /opt/anaconda3/envs/tif320env/gpaw-setups/gpaw-setups-24.11.0/H.LDA.gz
    compensation charges: {type: gauss,
                           rc: 0.15,
                           lmax: 2}
    cutoffs: {filter: 0.85,
              core: 0.53}
    projectors:
      #              energy  rcut
      - 1s(1.00)    -6.353   0.476
      -  s          20.858   0.476
      -  p           0.000   0.476
  
    # Using partial waves for H as LCAO basis

Reference energy: -12.128958  # eV

Spin-polarized calculation.
Magnetic moment: 1.000000

Convergence criteria:
 Maximum [total energy] change in last 3 cyles: 0.0005 eV / valence electron
 Maximum integral of absolute [dens]ity change: 0.0001 electrons / valence electron
 Maximum integral of absolute [eigenst]ate change: 4e-08 eV^2 / valence electron
 Maximum number of scf [iter]ations: 333
 (Square brackets indicate name in SCF output, whereas a 'c' in
 the SCF output indicates the quantity has converged.)

Symmetries present (total): 48

  ( 1  0  0)  ( 1  0  0)  ( 1  0  0)  ( 1  0  0)  ( 1  0  0)  ( 1  0  0)
  ( 0  1  0)  ( 0  1  0)  ( 0  0  1)  ( 0  0  1)  ( 0  0 -1)  ( 0  0 -1)
  ( 0  0  1)  ( 0  0 -1)  ( 0  1  0)  ( 0 -1  0)  ( 0  1  0)  ( 0 -1  0)

  ( 1  0  0)  ( 1  0  0)  ( 0  1  0)  ( 0  1  0)  ( 0  1  0)  ( 0  1  0)
  ( 0 -1  0)  ( 0 -1  0)  ( 1  0  0)  ( 1  0  0)  ( 0  0  1)  ( 0  0  1)
  ( 0  0  1)  ( 0  0 -1)  ( 0  0  1)  ( 0  0 -1)  ( 1  0  0)  (-1  0  0)

  ( 0  1  0)  ( 0  1  0)  ( 0  1  0)  ( 0  1  0)  ( 0  0  1)  ( 0  0  1)
  ( 0  0 -1)  ( 0  0 -1)  (-1  0  0)  (-1  0  0)  ( 1  0  0)  ( 1  0  0)
  ( 1  0  0)  (-1  0  0)  ( 0  0  1)  ( 0  0 -1)  ( 0  1  0)  ( 0 -1  0)

  ( 0  0  1)  ( 0  0  1)  ( 0  0  1)  ( 0  0  1)  ( 0  0  1)  ( 0  0  1)
  ( 0  1  0)  ( 0  1  0)  ( 0 -1  0)  ( 0 -1  0)  (-1  0  0)  (-1  0  0)
  ( 1  0  0)  (-1  0  0)  ( 1  0  0)  (-1  0  0)  ( 0  1  0)  ( 0 -1  0)

  ( 0  0 -1)  ( 0  0 -1)  ( 0  0 -1)  ( 0  0 -1)  ( 0  0 -1)  ( 0  0 -1)
  ( 1  0  0)  ( 1  0  0)  ( 0  1  0)  ( 0  1  0)  ( 0 -1  0)  ( 0 -1  0)
  ( 0  1  0)  ( 0 -1  0)  ( 1  0  0)  (-1  0  0)  ( 1  0  0)  (-1  0  0)

  ( 0  0 -1)  ( 0  0 -1)  ( 0 -1  0)  ( 0 -1  0)  ( 0 -1  0)  ( 0 -1  0)
  (-1  0  0)  (-1  0  0)  ( 1  0  0)  ( 1  0  0)  ( 0  0  1)  ( 0  0  1)
  ( 0  1  0)  ( 0 -1  0)  ( 0  0  1)  ( 0  0 -1)  ( 1  0  0)  (-1  0  0)

  ( 0 -1  0)  ( 0 -1  0)  ( 0 -1  0)  ( 0 -1  0)  (-1  0  0)  (-1  0  0)
  ( 0  0 -1)  ( 0  0 -1)  (-1  0  0)  (-1  0  0)  ( 0  1  0)  ( 0  1  0)
  ( 1  0  0)  (-1  0  0)  ( 0  0  1)  ( 0  0 -1)  ( 0  0  1)  ( 0  0 -1)

  (-1  0  0)  (-1  0  0)  (-1  0  0)  (-1  0  0)  (-1  0  0)  (-1  0  0)
  ( 0  0  1)  ( 0  0  1)  ( 0  0 -1)  ( 0  0 -1)  ( 0 -1  0)  ( 0 -1  0)
  ( 0  1  0)  ( 0 -1  0)  ( 0  1  0)  ( 0 -1  0)  ( 0  0  1)  ( 0  0 -1)

1 k-point (Gamma)
1 k-point in the irreducible part of the Brillouin zone
       k-points in crystal coordinates                weights
   0:     0.00000000    0.00000000    0.00000000          1/1

Wave functions: Plane wave expansion
  Cutoff energy: 250.000 eV
  Number of coefficients: 4625 (reduced to 2313)
  Pulay-stress correction: 0.000000 eV/Ang^3 (de/decut=0.000000)
  Using Numpy's FFT
  ScaLapack parameters: grid=1x1, blocksize=None
  Wavefunction extrapolation:
    Improved wavefunction reuse through dual PAW basis 

Occupation numbers: # Zero width 

Eigensolver
   Davidson(niter=2) 

Densities:
  Coarse grid: 30*30*30 grid
  Fine grid: 60*60*60 grid
  Total Charge: 0.000000 

Density mixing:
  Method: difference
  Backend: pulay
  Linear mixing parameter: 0.05
  old densities: 5
  Damping of long wavelength oscillations: 50 

Hamiltonian:
  XC and Coulomb potentials evaluated on a 60*60*60 grid
  Using the LDA Exchange-Correlation functional
  External potential:
    NoExternalPotential
 

Memory estimate:
  Process memory now: 856.66 MiB
  Calculator: 21.38 MiB
    Density: 14.95 MiB
      Arrays: 7.21 MiB
      Localized functions: 4.86 MiB
      Mixer: 2.88 MiB
    Hamiltonian: 5.46 MiB
      Arrays: 5.36 MiB
      XC: 0.00 MiB
      Poisson: 0.00 MiB
      vbar: 0.10 MiB
    Wavefunctions: 0.98 MiB
      Arrays psit_nG: 0.07 MiB
      Eigensolver: 0.21 MiB
      Projections: 0.00 MiB
      Projectors: 0.12 MiB
      PW-descriptor: 0.57 MiB

Total number of cores used: 1

Number of atoms: 1
Number of atomic orbitals: 1
Number of bands in calculation: 1
Number of valence electrons: 1
Bands to converge: occupied

... initialized

Initializing position-dependent things.

Density initialized from atomic densities
Creating initial wave functions:
  1 band from LCAO basis set

      .-------------------.  
     /|                   |  
    / |                   |  
   /  |                   |  
  /   |                   |  
 *    |                   |  
 |    |                   |  
 |    |       H           |  
 |    |                   |  
 |    |                   |  
 |    .-------------------.  
 |   /                   /   
 |  /                   /    
 | /                   /     
 |/                   /      
 *-------------------*       

Positions:
   0 H      4.000000    4.000000    4.000000    ( 0.0000,  0.0000,  1.0000)

Unit cell:
           periodic     x           y           z      points  spacing
  1. axis:    no     8.000000    0.000000    0.000000    30     0.2667
  2. axis:    no     0.000000    8.000000    0.000000    30     0.2667
  3. axis:    no     0.000000    0.000000    8.000000    30     0.2667

  Lengths:   8.000000   8.000000   8.000000
  Angles:   90.000000  90.000000  90.000000

Effective grid spacing dv^(1/3) = 0.2667

     iter     time        total  log10-change:  magmom
                         energy   eigst   dens
iter:   1 15:28:07    -0.809127                   +1.0000
iter:   2 15:28:07    -0.862607   -2.31  -1.23    +1.0000
iter:   3 15:28:07    -0.931975   -2.80  -1.19    +1.0000
iter:   4 15:28:07    -0.827882   -2.42  -1.05    +1.0000
iter:   5 15:28:07    -0.821869   -3.98  -2.60    +1.0000
iter:   6 15:28:07    -0.819337   -3.54  -2.28    +1.0000
iter:   7 15:28:07    -0.814131   -4.38  -2.02    +1.0000
iter:   8 15:28:07    -0.813484   -5.33  -2.21    +1.0000
iter:   9 15:28:07    -0.813126   -5.98  -2.35    +1.0000
iter:  10 15:28:07    -0.813639   -5.92  -2.45    +1.0000
iter:  11 15:28:08    -0.811254   -4.60  -2.32    +1.0000
iter:  12 15:28:08    -0.811623   -6.75  -3.20    +1.0000
iter:  13 15:28:08    -0.813829   -5.35  -4.46c   +1.0000
iter:  14 15:28:08    -0.811086   -6.00  -3.36    +1.0000
iter:  15 15:28:08    -0.810874   -7.11  -3.79    +1.0000
iter:  16 15:28:08    -0.810880c  -8.31c -4.29c   +1.0000

Converged after 16 iterations.

Dipole moment: (0.000000, 0.000000, 0.000000) |e|*Ang

Total magnetic moment: (0.000000, 0.000000, 1.000000)
Local magnetic moments:
   0 H  ( 0.000000,  0.000000,  0.243406)

Energy contributions relative to reference atoms: (reference = -12.128958)

Kinetic:         +0.631060
Potential:       -0.285624
External:        +0.000000
XC:              -1.150526
Entropy (-ST):   +0.000000
Local:           -0.005790
SIC:             +0.000000
--------------------------
Free energy:     -0.810880
Extrapolated:    -0.810880

Spin contamination: 0.000020 electrons
                   Up                     Down
 Band  Eigenvalues  Occupancy  Eigenvalues  Occupancy
    0     -7.21967    1.00000     -2.66734    0.00000

Fermi level: -4.94351

Could not find a gap
Timing:                              incl.     excl.
-----------------------------------------------------------
Hamiltonian:                         0.026     0.001   0.1% |
 Atomic:                             0.002     0.000   0.0% |
  XC Correction:                     0.002     0.002   0.3% |
 Calculate atomic Hamiltonians:      0.001     0.001   0.1% |
 Communicate:                        0.000     0.000   0.0% |
 Initialize Hamiltonian:             0.000     0.000   0.0% |
 Poisson:                            0.000     0.000   0.0% |
 XC 3D grid:                         0.022     0.022   2.9% ||
LCAO initialization:                 0.004     0.001   0.2% |
 LCAO eigensolver:                   0.000     0.000   0.0% |
  Calculate projections:             0.000     0.000   0.0% |
  DenseAtomicCorrection:             0.000     0.000   0.0% |
  Distribute overlap matrix:         0.000     0.000   0.0% |
  Orbital Layouts:                   0.000     0.000   0.0% |
  Potential matrix:                  0.000     0.000   0.0% |
 LCAO to grid:                       0.001     0.001   0.1% |
 Set positions (LCAO WFS):           0.001     0.000   0.0% |
  Basic WFS set positions:           0.000     0.000   0.0% |
  Basis functions set positions:     0.000     0.000   0.0% |
  P tci:                             0.000     0.000   0.0% |
  ST tci:                            0.000     0.000   0.0% |
  mktci:                             0.001     0.001   0.1% |
PWDescriptor:                        0.000     0.000   0.0% |
SCF-cycle:                           0.687     0.003   0.4% |
 Davidson:                           0.080     0.010   1.3% ||
  Apply H:                           0.014     0.014   1.8% ||
   HMM T:                            0.000     0.000   0.0% |
  Subspace diag:                     0.020     0.000   0.1% |
   calc_h_matrix:                    0.018     0.002   0.3% |
    Apply H:                         0.016     0.016   2.1% ||
     HMM T:                          0.000     0.000   0.0% |
   diagonalize:                      0.001     0.001   0.1% |
   rotate_psi:                       0.000     0.000   0.1% |
  calc. matrices:                    0.035     0.008   1.0% |
   Apply H:                          0.027     0.027   3.6% ||
    HMM T:                           0.000     0.000   0.0% |
  diagonalize:                       0.001     0.001   0.1% |
  rotate_psi:                        0.001     0.001   0.1% |
 Density:                            0.239     0.000   0.0% |
  Atomic density matrices:           0.004     0.004   0.5% |
  Mix:                               0.098     0.098  13.0% |----|
  Multipole moments:                 0.000     0.000   0.0% |
  Pseudo density:                    0.137     0.007   1.0% |
   Symmetrize density:               0.129     0.129  17.1% |------|
 Hamiltonian:                        0.364     0.006   0.8% |
  Atomic:                            0.031     0.002   0.2% |
   XC Correction:                    0.029     0.029   3.9% |-|
  Calculate atomic Hamiltonians:     0.016     0.016   2.2% ||
  Communicate:                       0.000     0.000   0.0% |
  Poisson:                           0.002     0.002   0.3% |
  XC 3D grid:                        0.308     0.308  40.8% |---------------|
 Orthonormalize:                     0.000     0.000   0.0% |
  calc_s_matrix:                     0.000     0.000   0.0% |
  inverse-cholesky:                  0.000     0.000   0.0% |
  projections:                       0.000     0.000   0.0% |
  rotate_psi_s:                      0.000     0.000   0.0% |
Set symmetry:                        0.002     0.002   0.3% |
Other:                               0.037     0.037   4.9% |-|
-----------------------------------------------------------
Total:                                         0.756 100.0%

Memory usage: 856.66 MiB
Date: Tue Feb  4 15:28:08 2025
