
  ___ ___ ___ _ _ _  
 |   |   |_  | | | | 
 | | | | | . | | | | 
 |__ |  _|___|_____|  25.1.0
 |___|_|             

User:   zoe@Zoes-MacBook-Air.local
Date:   Tue Feb  4 15:27:32 2025
Arch:   arm64
Pid:    79289
CWD:    /Users/zoe/Documents/Python/TIF320_Computitional_molecular_physics
Python: 3.12.2
gpaw:   /opt/anaconda3/envs/tif320env/lib/python3.12/site-packages/gpaw
_gpaw:  /opt/anaconda3/envs/tif320env/lib/python3.12/site-packages/
        _gpaw.cpython-312-darwin.so
ase:    /opt/anaconda3/envs/tif320env/lib/python3.12/site-packages/ase (version 3.24.0)
numpy:  /opt/anaconda3/envs/tif320env/lib/python3.12/site-packages/numpy (version 2.0.1)
scipy:  /opt/anaconda3/envs/tif320env/lib/python3.12/site-packages/scipy (version 1.15.1)
libxc:  7.0.0
units:  Angstrom and eV
cores: 1
OpenMP: False
OMP_NUM_THREADS: 1

Input parameters:
  h: 0.16
  mode: fd

System changes: positions, numbers, cell, pbc, initial_charges, initial_magmoms 

Initialize ...

species:
  H:
    name: Hydrogen
    id: 4766778ce56282eaa64abeb28b7c1de3
    Z: 1.0
    valence: 1
    core: 0
    charge: 0.0
    file: /opt/anaconda3/envs/tif320env/gpaw-setups/gpaw-setups-24.11.0/H.LDA.gz
    compensation charges: {type: gauss,
                           rc: 0.15,
                           lmax: 2}
    cutoffs: {filter: 0.85,
              core: 0.53}
    projectors:
      #              energy  rcut
      - 1s(1.00)    -6.353   0.476
      -  s          20.858   0.476
      -  p           0.000   0.476
  
    # Using partial waves for H as LCAO basis

Reference energy: -12.128958  # eV

Spin-polarized calculation.
Magnetic moment: 1.000000

Convergence criteria:
 Maximum [total energy] change in last 3 cyles: 0.0005 eV / valence electron
 Maximum integral of absolute [dens]ity change: 0.0001 electrons / valence electron
 Maximum integral of absolute [eigenst]ate change: 4e-08 eV^2 / valence electron
 Maximum number of scf [iter]ations: 333
 (Square brackets indicate name in SCF output, whereas a 'c' in
 the SCF output indicates the quantity has converged.)

Symmetries present (total): 48

  ( 1  0  0)  ( 1  0  0)  ( 1  0  0)  ( 1  0  0)  ( 1  0  0)  ( 1  0  0)
  ( 0  1  0)  ( 0  1  0)  ( 0  0  1)  ( 0  0  1)  ( 0  0 -1)  ( 0  0 -1)
  ( 0  0  1)  ( 0  0 -1)  ( 0  1  0)  ( 0 -1  0)  ( 0  1  0)  ( 0 -1  0)

  ( 1  0  0)  ( 1  0  0)  ( 0  1  0)  ( 0  1  0)  ( 0  1  0)  ( 0  1  0)
  ( 0 -1  0)  ( 0 -1  0)  ( 1  0  0)  ( 1  0  0)  ( 0  0  1)  ( 0  0  1)
  ( 0  0  1)  ( 0  0 -1)  ( 0  0  1)  ( 0  0 -1)  ( 1  0  0)  (-1  0  0)

  ( 0  1  0)  ( 0  1  0)  ( 0  1  0)  ( 0  1  0)  ( 0  0  1)  ( 0  0  1)
  ( 0  0 -1)  ( 0  0 -1)  (-1  0  0)  (-1  0  0)  ( 1  0  0)  ( 1  0  0)
  ( 1  0  0)  (-1  0  0)  ( 0  0  1)  ( 0  0 -1)  ( 0  1  0)  ( 0 -1  0)

  ( 0  0  1)  ( 0  0  1)  ( 0  0  1)  ( 0  0  1)  ( 0  0  1)  ( 0  0  1)
  ( 0  1  0)  ( 0  1  0)  ( 0 -1  0)  ( 0 -1  0)  (-1  0  0)  (-1  0  0)
  ( 1  0  0)  (-1  0  0)  ( 1  0  0)  (-1  0  0)  ( 0  1  0)  ( 0 -1  0)

  ( 0  0 -1)  ( 0  0 -1)  ( 0  0 -1)  ( 0  0 -1)  ( 0  0 -1)  ( 0  0 -1)
  ( 1  0  0)  ( 1  0  0)  ( 0  1  0)  ( 0  1  0)  ( 0 -1  0)  ( 0 -1  0)
  ( 0  1  0)  ( 0 -1  0)  ( 1  0  0)  (-1  0  0)  ( 1  0  0)  (-1  0  0)

  ( 0  0 -1)  ( 0  0 -1)  ( 0 -1  0)  ( 0 -1  0)  ( 0 -1  0)  ( 0 -1  0)
  (-1  0  0)  (-1  0  0)  ( 1  0  0)  ( 1  0  0)  ( 0  0  1)  ( 0  0  1)
  ( 0  1  0)  ( 0 -1  0)  ( 0  0  1)  ( 0  0 -1)  ( 1  0  0)  (-1  0  0)

  ( 0 -1  0)  ( 0 -1  0)  ( 0 -1  0)  ( 0 -1  0)  (-1  0  0)  (-1  0  0)
  ( 0  0 -1)  ( 0  0 -1)  (-1  0  0)  (-1  0  0)  ( 0  1  0)  ( 0  1  0)
  ( 1  0  0)  (-1  0  0)  ( 0  0  1)  ( 0  0 -1)  ( 0  0  1)  ( 0  0 -1)

  (-1  0  0)  (-1  0  0)  (-1  0  0)  (-1  0  0)  (-1  0  0)  (-1  0  0)
  ( 0  0  1)  ( 0  0  1)  ( 0  0 -1)  ( 0  0 -1)  ( 0 -1  0)  ( 0 -1  0)
  ( 0  1  0)  ( 0 -1  0)  ( 0  1  0)  ( 0 -1  0)  ( 0  0  1)  ( 0  0 -1)

1 k-point (Gamma)
1 k-point in the irreducible part of the Brillouin zone
       k-points in crystal coordinates                weights
   0:     0.00000000    0.00000000    0.00000000          1/1

Wave functions: Uniform real-space grid
  Kinetic energy operator: 6*3+1=19 point O(h^6) finite-difference Laplacian
  ScaLapack parameters: grid=1x1, blocksize=None
  Wavefunction extrapolation:
    Improved wavefunction reuse through dual PAW basis 

Occupation numbers: # Zero width 

Eigensolver
   Davidson(niter=2) 

Densities:
  Coarse grid: 52*52*52 grid
  Fine grid: 104*104*104 grid
  Total Charge: 0.000000 

Density mixing:
  Method: difference
  Backend: pulay
  Linear mixing parameter: 0.25
  old densities: 3
  Damping of long wavelength oscillations: 1  # (no daming) 

Hamiltonian:
  XC and Coulomb potentials evaluated on a 104*104*104 grid
  Using the LDA Exchange-Correlation functional
  Interpolation: tri-quintic (5. degree polynomial)
  Poisson solver: FastPoissonSolver using
    Stencil: 6*3+1=19 point O(h^6) finite-difference Laplacian
    FFT axes: []
    FST axes: [np.int64(0), np.int64(1), np.int64(2)]
 

Memory estimate:
  Process memory now: 856.66 MiB
  Calculator: 82.25 MiB
    Density: 47.05 MiB
      Arrays: 36.38 MiB
      Localized functions: 0.55 MiB
      Mixer: 10.12 MiB
    Hamiltonian: 27.08 MiB
      Arrays: 27.03 MiB
      XC: 0.00 MiB
      Poisson: 0.00 MiB
      vbar: 0.04 MiB
    Wavefunctions: 8.12 MiB
      Arrays psit_nG: 2.02 MiB
      Eigensolver: 6.07 MiB
      Projections: 0.00 MiB
      Projectors: 0.03 MiB

Total number of cores used: 1

Number of atoms: 1
Number of atomic orbitals: 1
Number of bands in calculation: 1
Number of valence electrons: 1
Bands to converge: occupied

... initialized

Initializing position-dependent things.

Density initialized from atomic densities
Creating initial wave functions:
  1 band from LCAO basis set

      .-------------------.  
     /|                   |  
    / |                   |  
   /  |                   |  
  /   |                   |  
 *    |                   |  
 |    |                   |  
 |    |       H           |  
 |    |                   |  
 |    |                   |  
 |    .-------------------.  
 |   /                   /   
 |  /                   /    
 | /                   /     
 |/                   /      
 *-------------------*       

Positions:
   0 H      4.000000    4.000000    4.000000    ( 0.0000,  0.0000,  1.0000)

Unit cell:
           periodic     x           y           z      points  spacing
  1. axis:    no     8.000000    0.000000    0.000000    52     0.1538
  2. axis:    no     0.000000    8.000000    0.000000    52     0.1538
  3. axis:    no     0.000000    0.000000    8.000000    52     0.1538

  Lengths:   8.000000   8.000000   8.000000
  Angles:   90.000000  90.000000  90.000000

Effective grid spacing dv^(1/3) = 0.1538

     iter     time        total  log10-change:  magmom
                         energy   eigst   dens
iter:   1 15:27:33    -0.895515                   +1.0000
iter:   2 15:27:33    -0.930157   +0.00  -1.30    +1.0000
iter:   3 15:27:33    -0.982162   +0.22  -1.32    +1.0000
iter:   4 15:27:33    -0.898703   -0.09  -0.83    +1.0000
iter:   5 15:27:34    -0.897333   -0.71  -3.26    +1.0000
iter:   6 15:27:34    -0.902790   -1.75  -2.44    +1.0000
iter:   7 15:27:34    -0.900339   -1.26  -2.40    +1.0000
iter:   8 15:27:34    -0.907855   -1.60  -2.18    +1.0000
iter:   9 15:27:35    -0.909487   -2.39  -2.04    +1.0000
iter:  10 15:27:35    -0.903433   -3.19  -2.04    +1.0000
iter:  11 15:27:35    -0.898408   -2.76  -2.35    +1.0000
iter:  12 15:27:35    -0.899198   -4.17  -3.39    +1.0000
iter:  13 15:27:35    -0.896775   -3.91  -3.15    +1.0000
iter:  14 15:27:36    -0.896425   -4.45  -3.69    +1.0000
iter:  15 15:27:36    -0.896442c  -6.12  -3.81    +1.0000
iter:  16 15:27:36    -0.896419c  -6.44  -3.93    +1.0000
iter:  17 15:27:36    -0.896413c  -6.97  -3.97    +1.0000
iter:  18 15:27:37    -0.896348c  -6.00  -4.02c   +1.0000
iter:  19 15:27:37    -0.896318c  -6.10  -4.38c   +1.0000
iter:  20 15:27:37    -0.896328c  -7.96c -4.53c   +1.0000

Converged after 20 iterations.

Dipole moment: (-0.000000, -0.000000, -0.000000) |e|*Ang

Total magnetic moment: (0.000000, 0.000000, 1.000000)
Local magnetic moments:
   0 H  ( 0.000000,  0.000000,  0.248285)

Energy contributions relative to reference atoms: (reference = -12.128958)

Kinetic:         +1.189059
Potential:       -0.834360
External:        +0.000000
XC:              -1.249068
Entropy (-ST):   +0.000000
Local:           -0.001959
SIC:             +0.000000
--------------------------
Free energy:     -0.896328
Extrapolated:    -0.896328

Spin contamination: 0.000000 electrons
                   Up                     Down
 Band  Eigenvalues  Occupancy  Eigenvalues  Occupancy
    0     -7.31551    1.00000     -2.58943    0.00000

Fermi level: -4.95247

Could not find a gap
Timing:                              incl.     excl.
-----------------------------------------------------------
Hamiltonian:                         0.136     0.000   0.0% |
 Atomic:                             0.002     0.000   0.0% |
  XC Correction:                     0.002     0.002   0.0% |
 Calculate atomic Hamiltonians:      0.000     0.000   0.0% |
 Communicate:                        0.000     0.000   0.0% |
 Hartree integrate/restrict:         0.005     0.005   0.1% |
 Initialize Hamiltonian:             0.000     0.000   0.0% |
 Poisson:                            0.043     0.001   0.0% |
  Communicate from 1D:               0.004     0.004   0.1% |
  Communicate from 2D:               0.004     0.004   0.1% |
  Communicate to 1D:                 0.005     0.005   0.1% |
  Communicate to 2D:                 0.004     0.004   0.1% |
  FFT 1D:                            0.007     0.007   0.2% |
  FFT 2D:                            0.017     0.017   0.4% |
 XC 3D grid:                         0.084     0.084   1.8% ||
 vbar:                               0.001     0.001   0.0% |
LCAO initialization:                 0.002     0.001   0.0% |
 LCAO eigensolver:                   0.001     0.000   0.0% |
  Calculate projections:             0.000     0.000   0.0% |
  DenseAtomicCorrection:             0.000     0.000   0.0% |
  Distribute overlap matrix:         0.000     0.000   0.0% |
  Orbital Layouts:                   0.000     0.000   0.0% |
  Potential matrix:                  0.000     0.000   0.0% |
 LCAO to grid:                       0.000     0.000   0.0% |
 Set positions (LCAO WFS):           0.001     0.000   0.0% |
  Basic WFS set positions:           0.000     0.000   0.0% |
  Basis functions set positions:     0.000     0.000   0.0% |
  P tci:                             0.000     0.000   0.0% |
  ST tci:                            0.000     0.000   0.0% |
  mktci:                             0.000     0.000   0.0% |
SCF-cycle:                           4.187     0.007   0.1% |
 Davidson:                           0.462     0.172   3.7% ||
  Apply hamiltonian:                 0.045     0.045   1.0% |
  Subspace diag:                     0.075     0.001   0.0% |
   calc_h_matrix:                    0.066     0.020   0.4% |
    Apply hamiltonian:               0.046     0.046   1.0% |
   diagonalize:                      0.001     0.001   0.0% |
   rotate_psi:                       0.006     0.006   0.1% |
  calc. matrices:                    0.158     0.066   1.4% ||
   Apply hamiltonian:                0.092     0.092   2.0% ||
  diagonalize:                       0.002     0.002   0.1% |
  rotate_psi:                        0.009     0.009   0.2% |
 Density:                            0.999     0.000   0.0% |
  Atomic density matrices:           0.006     0.006   0.1% |
  Mix:                               0.185     0.185   4.0% |-|
  Multipole moments:                 0.000     0.000   0.0% |
  Pseudo density:                    0.807     0.003   0.1% |
   Symmetrize density:               0.804     0.804  17.5% |------|
 Hamiltonian:                        2.719     0.005   0.1% |
  Atomic:                            0.041     0.003   0.1% |
   XC Correction:                    0.038     0.038   0.8% |
  Calculate atomic Hamiltonians:     0.003     0.003   0.1% |
  Communicate:                       0.000     0.000   0.0% |
  Hartree integrate/restrict:        0.090     0.090   2.0% ||
  Poisson:                           0.899     0.032   0.7% |
   Communicate from 1D:              0.083     0.083   1.8% ||
   Communicate from 2D:              0.093     0.093   2.0% ||
   Communicate to 1D:                0.100     0.100   2.2% ||
   Communicate to 2D:                0.090     0.090   1.9% ||
   FFT 1D:                           0.155     0.155   3.4% ||
   FFT 2D:                           0.346     0.346   7.5% |--|
  XC 3D grid:                        1.672     1.672  36.3% |--------------|
  vbar:                              0.010     0.010   0.2% |
 Orthonormalize:                     0.001     0.000   0.0% |
  calc_s_matrix:                     0.000     0.000   0.0% |
  inverse-cholesky:                  0.000     0.000   0.0% |
  projections:                       0.000     0.000   0.0% |
  rotate_psi_s:                      0.000     0.000   0.0% |
Set symmetry:                        0.002     0.002   0.0% |
Other:                               0.279     0.279   6.1% |-|
-----------------------------------------------------------
Total:                                         4.606 100.0%

Memory usage: 856.66 MiB
Date: Tue Feb  4 15:27:37 2025
