
  ___ ___ ___ _ _ _  
 |   |   |_  | | | | 
 | | | | | . | | | | 
 |__ |  _|___|_____|  25.1.0
 |___|_|             

User:   zoe@Zoes-MacBook-Air.local
Date:   Tue Feb  4 15:27:44 2025
Arch:   arm64
Pid:    79289
CWD:    /Users/zoe/Documents/Python/TIF320_Computitional_molecular_physics
Python: 3.12.2
gpaw:   /opt/anaconda3/envs/tif320env/lib/python3.12/site-packages/gpaw
_gpaw:  /opt/anaconda3/envs/tif320env/lib/python3.12/site-packages/
        _gpaw.cpython-312-darwin.so
ase:    /opt/anaconda3/envs/tif320env/lib/python3.12/site-packages/ase (version 3.24.0)
numpy:  /opt/anaconda3/envs/tif320env/lib/python3.12/site-packages/numpy (version 2.0.1)
scipy:  /opt/anaconda3/envs/tif320env/lib/python3.12/site-packages/scipy (version 1.15.1)
libxc:  7.0.0
units:  Angstrom and eV
cores: 1
OpenMP: False
OMP_NUM_THREADS: 1

Input parameters:
  h: 0.18
  mode: fd

System changes: positions, numbers, cell, pbc, initial_charges, initial_magmoms 

Initialize ...

species:
  H:
    name: Hydrogen
    id: 4766778ce56282eaa64abeb28b7c1de3
    Z: 1.0
    valence: 1
    core: 0
    charge: 0.0
    file: /opt/anaconda3/envs/tif320env/gpaw-setups/gpaw-setups-24.11.0/H.LDA.gz
    compensation charges: {type: gauss,
                           rc: 0.15,
                           lmax: 2}
    cutoffs: {filter: 0.85,
              core: 0.53}
    projectors:
      #              energy  rcut
      - 1s(1.00)    -6.353   0.476
      -  s          20.858   0.476
      -  p           0.000   0.476
  
    # Using partial waves for H as LCAO basis

Reference energy: -12.128958  # eV

Spin-polarized calculation.
Magnetic moment: 1.000000

Convergence criteria:
 Maximum [total energy] change in last 3 cyles: 0.0005 eV / valence electron
 Maximum integral of absolute [dens]ity change: 0.0001 electrons / valence electron
 Maximum integral of absolute [eigenst]ate change: 4e-08 eV^2 / valence electron
 Maximum number of scf [iter]ations: 333
 (Square brackets indicate name in SCF output, whereas a 'c' in
 the SCF output indicates the quantity has converged.)

Symmetries present (total): 48

  ( 1  0  0)  ( 1  0  0)  ( 1  0  0)  ( 1  0  0)  ( 1  0  0)  ( 1  0  0)
  ( 0  1  0)  ( 0  1  0)  ( 0  0  1)  ( 0  0  1)  ( 0  0 -1)  ( 0  0 -1)
  ( 0  0  1)  ( 0  0 -1)  ( 0  1  0)  ( 0 -1  0)  ( 0  1  0)  ( 0 -1  0)

  ( 1  0  0)  ( 1  0  0)  ( 0  1  0)  ( 0  1  0)  ( 0  1  0)  ( 0  1  0)
  ( 0 -1  0)  ( 0 -1  0)  ( 1  0  0)  ( 1  0  0)  ( 0  0  1)  ( 0  0  1)
  ( 0  0  1)  ( 0  0 -1)  ( 0  0  1)  ( 0  0 -1)  ( 1  0  0)  (-1  0  0)

  ( 0  1  0)  ( 0  1  0)  ( 0  1  0)  ( 0  1  0)  ( 0  0  1)  ( 0  0  1)
  ( 0  0 -1)  ( 0  0 -1)  (-1  0  0)  (-1  0  0)  ( 1  0  0)  ( 1  0  0)
  ( 1  0  0)  (-1  0  0)  ( 0  0  1)  ( 0  0 -1)  ( 0  1  0)  ( 0 -1  0)

  ( 0  0  1)  ( 0  0  1)  ( 0  0  1)  ( 0  0  1)  ( 0  0  1)  ( 0  0  1)
  ( 0  1  0)  ( 0  1  0)  ( 0 -1  0)  ( 0 -1  0)  (-1  0  0)  (-1  0  0)
  ( 1  0  0)  (-1  0  0)  ( 1  0  0)  (-1  0  0)  ( 0  1  0)  ( 0 -1  0)

  ( 0  0 -1)  ( 0  0 -1)  ( 0  0 -1)  ( 0  0 -1)  ( 0  0 -1)  ( 0  0 -1)
  ( 1  0  0)  ( 1  0  0)  ( 0  1  0)  ( 0  1  0)  ( 0 -1  0)  ( 0 -1  0)
  ( 0  1  0)  ( 0 -1  0)  ( 1  0  0)  (-1  0  0)  ( 1  0  0)  (-1  0  0)

  ( 0  0 -1)  ( 0  0 -1)  ( 0 -1  0)  ( 0 -1  0)  ( 0 -1  0)  ( 0 -1  0)
  (-1  0  0)  (-1  0  0)  ( 1  0  0)  ( 1  0  0)  ( 0  0  1)  ( 0  0  1)
  ( 0  1  0)  ( 0 -1  0)  ( 0  0  1)  ( 0  0 -1)  ( 1  0  0)  (-1  0  0)

  ( 0 -1  0)  ( 0 -1  0)  ( 0 -1  0)  ( 0 -1  0)  (-1  0  0)  (-1  0  0)
  ( 0  0 -1)  ( 0  0 -1)  (-1  0  0)  (-1  0  0)  ( 0  1  0)  ( 0  1  0)
  ( 1  0  0)  (-1  0  0)  ( 0  0  1)  ( 0  0 -1)  ( 0  0  1)  ( 0  0 -1)

  (-1  0  0)  (-1  0  0)  (-1  0  0)  (-1  0  0)  (-1  0  0)  (-1  0  0)
  ( 0  0  1)  ( 0  0  1)  ( 0  0 -1)  ( 0  0 -1)  ( 0 -1  0)  ( 0 -1  0)
  ( 0  1  0)  ( 0 -1  0)  ( 0  1  0)  ( 0 -1  0)  ( 0  0  1)  ( 0  0 -1)

1 k-point (Gamma)
1 k-point in the irreducible part of the Brillouin zone
       k-points in crystal coordinates                weights
   0:     0.00000000    0.00000000    0.00000000          1/1

Wave functions: Uniform real-space grid
  Kinetic energy operator: 6*3+1=19 point O(h^6) finite-difference Laplacian
  ScaLapack parameters: grid=1x1, blocksize=None
  Wavefunction extrapolation:
    Improved wavefunction reuse through dual PAW basis 

Occupation numbers: # Zero width 

Eigensolver
   Davidson(niter=2) 

Densities:
  Coarse grid: 44*44*44 grid
  Fine grid: 88*88*88 grid
  Total Charge: 0.000000 

Density mixing:
  Method: difference
  Backend: pulay
  Linear mixing parameter: 0.25
  old densities: 3
  Damping of long wavelength oscillations: 1  # (no daming) 

Hamiltonian:
  XC and Coulomb potentials evaluated on a 88*88*88 grid
  Using the LDA Exchange-Correlation functional
  Interpolation: tri-quintic (5. degree polynomial)
  Poisson solver: FastPoissonSolver using
    Stencil: 6*3+1=19 point O(h^6) finite-difference Laplacian
    FFT axes: []
    FST axes: [np.int64(0), np.int64(1), np.int64(2)]
 

Memory estimate:
  Process memory now: 856.66 MiB
  Calculator: 49.49 MiB
    Density: 28.31 MiB
      Arrays: 21.92 MiB
      Localized functions: 0.33 MiB
      Mixer: 6.07 MiB
    Hamiltonian: 16.31 MiB
      Arrays: 16.29 MiB
      XC: 0.00 MiB
      Poisson: 0.00 MiB
      vbar: 0.03 MiB
    Wavefunctions: 4.87 MiB
      Arrays psit_nG: 1.21 MiB
      Eigensolver: 3.64 MiB
      Projections: 0.00 MiB
      Projectors: 0.02 MiB

Total number of cores used: 1

Number of atoms: 1
Number of atomic orbitals: 1
Number of bands in calculation: 1
Number of valence electrons: 1
Bands to converge: occupied

... initialized

Initializing position-dependent things.

Density initialized from atomic densities
Creating initial wave functions:
  1 band from LCAO basis set

      .-------------------.  
     /|                   |  
    / |                   |  
   /  |                   |  
  /   |                   |  
 *    |                   |  
 |    |                   |  
 |    |       H           |  
 |    |                   |  
 |    |                   |  
 |    .-------------------.  
 |   /                   /   
 |  /                   /    
 | /                   /     
 |/                   /      
 *-------------------*       

Positions:
   0 H      4.000000    4.000000    4.000000    ( 0.0000,  0.0000,  1.0000)

Unit cell:
           periodic     x           y           z      points  spacing
  1. axis:    no     8.000000    0.000000    0.000000    44     0.1818
  2. axis:    no     0.000000    8.000000    0.000000    44     0.1818
  3. axis:    no     0.000000    0.000000    8.000000    44     0.1818

  Lengths:   8.000000   8.000000   8.000000
  Angles:   90.000000  90.000000  90.000000

Effective grid spacing dv^(1/3) = 0.1818

     iter     time        total  log10-change:  magmom
                         energy   eigst   dens
iter:   1 15:27:44    -0.889782                   +1.0000
iter:   2 15:27:45    -0.926609   -0.25  -1.26    +1.0000
iter:   3 15:27:45    -0.964417   +0.08  -1.29    +1.0000
iter:   4 15:27:45    -0.891889   -0.35  -0.86    +1.0000
iter:   5 15:27:45    -0.890338   -1.14  -3.24    +1.0000
iter:   6 15:27:45    -0.893994   -2.22  -2.53    +1.0000
iter:   7 15:27:45    -0.890488   -1.86  -2.62    +1.0000
iter:   8 15:27:45    -0.898588   -2.00  -2.48    +1.0000
iter:   9 15:27:46    -0.898502   -3.77  -2.12    +1.0000
iter:  10 15:27:46    -0.896872   -4.78  -2.32    +1.0000
iter:  11 15:27:46    -0.889552   -3.49  -2.29    +1.0000
iter:  12 15:27:46    -0.890519   -4.55  -2.84    +1.0000
iter:  13 15:27:46    -0.890579   -4.79  -3.30    +1.0000
iter:  14 15:27:46    -0.889618   -5.09  -3.90    +1.0000
iter:  15 15:27:46    -0.889477   -5.76  -4.08c   +1.0000
iter:  16 15:27:46    -0.889459c  -6.98  -4.48c   +1.0000
iter:  17 15:27:47    -0.889443c  -6.65  -4.72c   +1.0000
iter:  18 15:27:47    -0.889445c  -8.35c -4.77c   +1.0000

Converged after 18 iterations.

Dipole moment: (-0.000000, -0.000000, -0.000000) |e|*Ang

Total magnetic moment: (0.000000, 0.000000, 1.000000)
Local magnetic moments:
   0 H  ( 0.000000,  0.000000,  0.248166)

Energy contributions relative to reference atoms: (reference = -12.128958)

Kinetic:         +1.195373
Potential:       -0.828730
External:        +0.000000
XC:              -1.249536
Entropy (-ST):   +0.000000
Local:           -0.006552
SIC:             +0.000000
--------------------------
Free energy:     -0.889445
Extrapolated:    -0.889445

Spin contamination: 0.000000 electrons
                   Up                     Down
 Band  Eigenvalues  Occupancy  Eigenvalues  Occupancy
    0     -7.31579    1.00000     -2.58829    0.00000

Fermi level: -4.95204

Could not find a gap
Timing:                              incl.     excl.
-----------------------------------------------------------
Hamiltonian:                         0.083     0.000   0.0% |
 Atomic:                             0.002     0.000   0.0% |
  XC Correction:                     0.002     0.002   0.1% |
 Calculate atomic Hamiltonians:      0.000     0.000   0.0% |
 Communicate:                        0.000     0.000   0.0% |
 Hartree integrate/restrict:         0.003     0.003   0.1% |
 Initialize Hamiltonian:             0.000     0.000   0.0% |
 Poisson:                            0.027     0.001   0.0% |
  Communicate from 1D:               0.003     0.003   0.1% |
  Communicate from 2D:               0.002     0.002   0.1% |
  Communicate to 1D:                 0.003     0.003   0.1% |
  Communicate to 2D:                 0.003     0.003   0.1% |
  FFT 1D:                            0.004     0.004   0.2% |
  FFT 2D:                            0.010     0.010   0.4% |
 XC 3D grid:                         0.050     0.050   2.0% ||
 vbar:                               0.000     0.000   0.0% |
LCAO initialization:                 0.002     0.001   0.0% |
 LCAO eigensolver:                   0.000     0.000   0.0% |
  Calculate projections:             0.000     0.000   0.0% |
  DenseAtomicCorrection:             0.000     0.000   0.0% |
  Distribute overlap matrix:         0.000     0.000   0.0% |
  Orbital Layouts:                   0.000     0.000   0.0% |
  Potential matrix:                  0.000     0.000   0.0% |
 LCAO to grid:                       0.000     0.000   0.0% |
 Set positions (LCAO WFS):           0.001     0.000   0.0% |
  Basic WFS set positions:           0.000     0.000   0.0% |
  Basis functions set positions:     0.000     0.000   0.0% |
  P tci:                             0.000     0.000   0.0% |
  ST tci:                            0.000     0.000   0.0% |
  mktci:                             0.000     0.000   0.0% |
SCF-cycle:                           2.216     0.004   0.2% |
 Davidson:                           0.229     0.086   3.5% ||
  Apply hamiltonian:                 0.023     0.023   0.9% |
  Subspace diag:                     0.036     0.001   0.0% |
   calc_h_matrix:                    0.031     0.007   0.3% |
    Apply hamiltonian:               0.024     0.024   1.0% |
   diagonalize:                      0.001     0.001   0.0% |
   rotate_psi:                       0.003     0.003   0.1% |
  calc. matrices:                    0.079     0.031   1.2% |
   Apply hamiltonian:                0.048     0.048   1.9% ||
  diagonalize:                       0.001     0.001   0.1% |
  rotate_psi:                        0.005     0.005   0.2% |
 Density:                            0.530     0.000   0.0% |
  Atomic density matrices:           0.005     0.005   0.2% |
  Mix:                               0.096     0.096   3.9% |-|
  Multipole moments:                 0.000     0.000   0.0% |
  Pseudo density:                    0.429     0.002   0.1% |
   Symmetrize density:               0.427     0.427  17.2% |------|
 Hamiltonian:                        1.452     0.003   0.1% |
  Atomic:                            0.035     0.002   0.1% |
   XC Correction:                    0.033     0.033   1.3% ||
  Calculate atomic Hamiltonians:     0.002     0.002   0.1% |
  Communicate:                       0.000     0.000   0.0% |
  Hartree integrate/restrict:        0.049     0.049   2.0% ||
  Poisson:                           0.467     0.021   0.8% |
   Communicate from 1D:              0.045     0.045   1.8% ||
   Communicate from 2D:              0.045     0.045   1.8% ||
   Communicate to 1D:                0.052     0.052   2.1% ||
   Communicate to 2D:                0.047     0.047   1.9% ||
   FFT 1D:                           0.077     0.077   3.1% ||
   FFT 2D:                           0.180     0.180   7.3% |--|
  XC 3D grid:                        0.892     0.892  36.0% |-------------|
  vbar:                              0.005     0.005   0.2% |
 Orthonormalize:                     0.000     0.000   0.0% |
  calc_s_matrix:                     0.000     0.000   0.0% |
  inverse-cholesky:                  0.000     0.000   0.0% |
  projections:                       0.000     0.000   0.0% |
  rotate_psi_s:                      0.000     0.000   0.0% |
Set symmetry:                        0.002     0.002   0.1% |
Other:                               0.174     0.174   7.0% |--|
-----------------------------------------------------------
Total:                                         2.477 100.0%

Memory usage: 856.66 MiB
Date: Tue Feb  4 15:27:47 2025
