
  ___ ___ ___ _ _ _  
 |   |   |_  | | | | 
 | | | | | . | | | | 
 |__ |  _|___|_____|  25.1.0
 |___|_|             

User:   zoe@Zoes-MacBook-Air.local
Date:   Tue Feb  4 15:27:51 2025
Arch:   arm64
Pid:    79289
CWD:    /Users/zoe/Documents/Python/TIF320_Computitional_molecular_physics
Python: 3.12.2
gpaw:   /opt/anaconda3/envs/tif320env/lib/python3.12/site-packages/gpaw
_gpaw:  /opt/anaconda3/envs/tif320env/lib/python3.12/site-packages/
        _gpaw.cpython-312-darwin.so
ase:    /opt/anaconda3/envs/tif320env/lib/python3.12/site-packages/ase (version 3.24.0)
numpy:  /opt/anaconda3/envs/tif320env/lib/python3.12/site-packages/numpy (version 2.0.1)
scipy:  /opt/anaconda3/envs/tif320env/lib/python3.12/site-packages/scipy (version 1.15.1)
libxc:  7.0.0
units:  Angstrom and eV
cores: 1
OpenMP: False
OMP_NUM_THREADS: 1

Input parameters:
  h: 0.2
  mode: fd

System changes: positions, numbers, cell, pbc, initial_charges, initial_magmoms 

Initialize ...

species:
  H:
    name: Hydrogen
    id: 4766778ce56282eaa64abeb28b7c1de3
    Z: 1.0
    valence: 1
    core: 0
    charge: 0.0
    file: /opt/anaconda3/envs/tif320env/gpaw-setups/gpaw-setups-24.11.0/H.LDA.gz
    compensation charges: {type: gauss,
                           rc: 0.15,
                           lmax: 2}
    cutoffs: {filter: 0.85,
              core: 0.53}
    projectors:
      #              energy  rcut
      - 1s(1.00)    -6.353   0.476
      -  s          20.858   0.476
      -  p           0.000   0.476
  
    # Using partial waves for H as LCAO basis

Reference energy: -12.128958  # eV

Spin-polarized calculation.
Magnetic moment: 1.000000

Convergence criteria:
 Maximum [total energy] change in last 3 cyles: 0.0005 eV / valence electron
 Maximum integral of absolute [dens]ity change: 0.0001 electrons / valence electron
 Maximum integral of absolute [eigenst]ate change: 4e-08 eV^2 / valence electron
 Maximum number of scf [iter]ations: 333
 (Square brackets indicate name in SCF output, whereas a 'c' in
 the SCF output indicates the quantity has converged.)

Symmetries present (total): 48

  ( 1  0  0)  ( 1  0  0)  ( 1  0  0)  ( 1  0  0)  ( 1  0  0)  ( 1  0  0)
  ( 0  1  0)  ( 0  1  0)  ( 0  0  1)  ( 0  0  1)  ( 0  0 -1)  ( 0  0 -1)
  ( 0  0  1)  ( 0  0 -1)  ( 0  1  0)  ( 0 -1  0)  ( 0  1  0)  ( 0 -1  0)

  ( 1  0  0)  ( 1  0  0)  ( 0  1  0)  ( 0  1  0)  ( 0  1  0)  ( 0  1  0)
  ( 0 -1  0)  ( 0 -1  0)  ( 1  0  0)  ( 1  0  0)  ( 0  0  1)  ( 0  0  1)
  ( 0  0  1)  ( 0  0 -1)  ( 0  0  1)  ( 0  0 -1)  ( 1  0  0)  (-1  0  0)

  ( 0  1  0)  ( 0  1  0)  ( 0  1  0)  ( 0  1  0)  ( 0  0  1)  ( 0  0  1)
  ( 0  0 -1)  ( 0  0 -1)  (-1  0  0)  (-1  0  0)  ( 1  0  0)  ( 1  0  0)
  ( 1  0  0)  (-1  0  0)  ( 0  0  1)  ( 0  0 -1)  ( 0  1  0)  ( 0 -1  0)

  ( 0  0  1)  ( 0  0  1)  ( 0  0  1)  ( 0  0  1)  ( 0  0  1)  ( 0  0  1)
  ( 0  1  0)  ( 0  1  0)  ( 0 -1  0)  ( 0 -1  0)  (-1  0  0)  (-1  0  0)
  ( 1  0  0)  (-1  0  0)  ( 1  0  0)  (-1  0  0)  ( 0  1  0)  ( 0 -1  0)

  ( 0  0 -1)  ( 0  0 -1)  ( 0  0 -1)  ( 0  0 -1)  ( 0  0 -1)  ( 0  0 -1)
  ( 1  0  0)  ( 1  0  0)  ( 0  1  0)  ( 0  1  0)  ( 0 -1  0)  ( 0 -1  0)
  ( 0  1  0)  ( 0 -1  0)  ( 1  0  0)  (-1  0  0)  ( 1  0  0)  (-1  0  0)

  ( 0  0 -1)  ( 0  0 -1)  ( 0 -1  0)  ( 0 -1  0)  ( 0 -1  0)  ( 0 -1  0)
  (-1  0  0)  (-1  0  0)  ( 1  0  0)  ( 1  0  0)  ( 0  0  1)  ( 0  0  1)
  ( 0  1  0)  ( 0 -1  0)  ( 0  0  1)  ( 0  0 -1)  ( 1  0  0)  (-1  0  0)

  ( 0 -1  0)  ( 0 -1  0)  ( 0 -1  0)  ( 0 -1  0)  (-1  0  0)  (-1  0  0)
  ( 0  0 -1)  ( 0  0 -1)  (-1  0  0)  (-1  0  0)  ( 0  1  0)  ( 0  1  0)
  ( 1  0  0)  (-1  0  0)  ( 0  0  1)  ( 0  0 -1)  ( 0  0  1)  ( 0  0 -1)

  (-1  0  0)  (-1  0  0)  (-1  0  0)  (-1  0  0)  (-1  0  0)  (-1  0  0)
  ( 0  0  1)  ( 0  0  1)  ( 0  0 -1)  ( 0  0 -1)  ( 0 -1  0)  ( 0 -1  0)
  ( 0  1  0)  ( 0 -1  0)  ( 0  1  0)  ( 0 -1  0)  ( 0  0  1)  ( 0  0 -1)

1 k-point (Gamma)
1 k-point in the irreducible part of the Brillouin zone
       k-points in crystal coordinates                weights
   0:     0.00000000    0.00000000    0.00000000          1/1

Wave functions: Uniform real-space grid
  Kinetic energy operator: 6*3+1=19 point O(h^6) finite-difference Laplacian
  ScaLapack parameters: grid=1x1, blocksize=None
  Wavefunction extrapolation:
    Improved wavefunction reuse through dual PAW basis 

Occupation numbers: # Zero width 

Eigensolver
   Davidson(niter=2) 

Densities:
  Coarse grid: 40*40*40 grid
  Fine grid: 80*80*80 grid
  Total Charge: 0.000000 

Density mixing:
  Method: difference
  Backend: pulay
  Linear mixing parameter: 0.25
  old densities: 3
  Damping of long wavelength oscillations: 1  # (no daming) 

Hamiltonian:
  XC and Coulomb potentials evaluated on a 80*80*80 grid
  Using the LDA Exchange-Correlation functional
  Interpolation: tri-quintic (5. degree polynomial)
  Poisson solver: FastPoissonSolver using
    Stencil: 6*3+1=19 point O(h^6) finite-difference Laplacian
    FFT axes: []
    FST axes: [np.int64(0), np.int64(1), np.int64(2)]
 

Memory estimate:
  Process memory now: 856.66 MiB
  Calculator: 37.02 MiB
    Density: 21.18 MiB
      Arrays: 16.40 MiB
      Localized functions: 0.25 MiB
      Mixer: 4.53 MiB
    Hamiltonian: 12.21 MiB
      Arrays: 12.19 MiB
      XC: 0.00 MiB
      Poisson: 0.00 MiB
      vbar: 0.02 MiB
    Wavefunctions: 3.63 MiB
      Arrays psit_nG: 0.91 MiB
      Eigensolver: 2.72 MiB
      Projections: 0.00 MiB
      Projectors: 0.01 MiB

Total number of cores used: 1

Number of atoms: 1
Number of atomic orbitals: 1
Number of bands in calculation: 1
Number of valence electrons: 1
Bands to converge: occupied

... initialized

Initializing position-dependent things.

Density initialized from atomic densities
Creating initial wave functions:
  1 band from LCAO basis set

      .-------------------.  
     /|                   |  
    / |                   |  
   /  |                   |  
  /   |                   |  
 *    |                   |  
 |    |                   |  
 |    |       H           |  
 |    |                   |  
 |    |                   |  
 |    .-------------------.  
 |   /                   /   
 |  /                   /    
 | /                   /     
 |/                   /      
 *-------------------*       

Positions:
   0 H      4.000000    4.000000    4.000000    ( 0.0000,  0.0000,  1.0000)

Unit cell:
           periodic     x           y           z      points  spacing
  1. axis:    no     8.000000    0.000000    0.000000    40     0.2000
  2. axis:    no     0.000000    8.000000    0.000000    40     0.2000
  3. axis:    no     0.000000    0.000000    8.000000    40     0.2000

  Lengths:   8.000000   8.000000   8.000000
  Angles:   90.000000  90.000000  90.000000

Effective grid spacing dv^(1/3) = 0.2000

     iter     time        total  log10-change:  magmom
                         energy   eigst   dens
iter:   1 15:27:52    -0.882777                   +1.0000
iter:   2 15:27:52    -0.921599   -0.50  -1.24    +1.0000
iter:   3 15:27:52    -0.926292   -0.31  -1.28    +1.0000
iter:   4 15:27:52    -0.883255   -0.86  -1.03    +1.0000
iter:   5 15:27:52    -0.882044   -1.64  -3.27    +1.0000
iter:   6 15:27:52    -0.882009   -2.29  -2.67    +1.0000
iter:   7 15:27:52    -0.883542   -2.97  -2.72    +1.0000
iter:   8 15:27:52    -0.882835   -3.74  -3.00    +1.0000
iter:   9 15:27:52    -0.882351   -3.57  -2.89    +1.0000
iter:  10 15:27:52    -0.881513   -4.14  -2.69    +1.0000
iter:  11 15:27:53    -0.881497   -4.62  -3.85    +1.0000
iter:  12 15:27:53    -0.881477c  -5.66  -4.00    +1.0000
iter:  13 15:27:53    -0.881509c  -7.38  -4.22c   +1.0000
iter:  14 15:27:53    -0.881468c  -6.90  -4.51c   +1.0000
iter:  15 15:27:53    -0.881467c  -7.17  -4.35c   +1.0000
iter:  16 15:27:53    -0.881448c  -7.23  -4.41c   +1.0000
iter:  17 15:27:53    -0.881451c  -7.48c -4.97c   +1.0000

Converged after 17 iterations.

Dipole moment: (0.000000, 0.000000, 0.000000) |e|*Ang

Total magnetic moment: (0.000000, 0.000000, 1.000000)
Local magnetic moments:
   0 H  ( 0.000000,  0.000000,  0.247659)

Energy contributions relative to reference atoms: (reference = -12.128958)

Kinetic:         +1.204210
Potential:       -0.823753
External:        +0.000000
XC:              -1.249868
Entropy (-ST):   +0.000000
Local:           -0.012040
SIC:             +0.000000
--------------------------
Free energy:     -0.881451
Extrapolated:    -0.881451

Spin contamination: 0.000000 electrons
                   Up                     Down
 Band  Eigenvalues  Occupancy  Eigenvalues  Occupancy
    0     -7.31579    1.00000     -2.63429    0.00000

Fermi level: -4.97504

Could not find a gap
Timing:                              incl.     excl.
-----------------------------------------------------------
Hamiltonian:                         0.059     0.000   0.0% |
 Atomic:                             0.002     0.000   0.0% |
  XC Correction:                     0.002     0.002   0.1% |
 Calculate atomic Hamiltonians:      0.000     0.000   0.0% |
 Communicate:                        0.000     0.000   0.0% |
 Hartree integrate/restrict:         0.002     0.002   0.1% |
 Initialize Hamiltonian:             0.000     0.000   0.0% |
 Poisson:                            0.016     0.001   0.1% |
  Communicate from 1D:               0.002     0.002   0.1% |
  Communicate from 2D:               0.002     0.002   0.1% |
  Communicate to 1D:                 0.002     0.002   0.1% |
  Communicate to 2D:                 0.002     0.002   0.1% |
  FFT 1D:                            0.002     0.002   0.1% |
  FFT 2D:                            0.005     0.005   0.3% |
 XC 3D grid:                         0.038     0.038   2.3% ||
 vbar:                               0.000     0.000   0.0% |
LCAO initialization:                 0.002     0.001   0.0% |
 LCAO eigensolver:                   0.000     0.000   0.0% |
  Calculate projections:             0.000     0.000   0.0% |
  DenseAtomicCorrection:             0.000     0.000   0.0% |
  Distribute overlap matrix:         0.000     0.000   0.0% |
  Orbital Layouts:                   0.000     0.000   0.0% |
  Potential matrix:                  0.000     0.000   0.0% |
 LCAO to grid:                       0.000     0.000   0.0% |
 Set positions (LCAO WFS):           0.001     0.000   0.0% |
  Basic WFS set positions:           0.000     0.000   0.0% |
  Basis functions set positions:     0.000     0.000   0.0% |
  P tci:                             0.000     0.000   0.0% |
  ST tci:                            0.000     0.000   0.0% |
  mktci:                             0.000     0.000   0.0% |
SCF-cycle:                           1.519     0.004   0.2% |
 Davidson:                           0.181     0.070   4.1% |-|
  Apply hamiltonian:                 0.018     0.018   1.0% |
  Subspace diag:                     0.027     0.000   0.0% |
   calc_h_matrix:                    0.023     0.006   0.4% |
    Apply hamiltonian:               0.017     0.017   1.0% |
   diagonalize:                      0.001     0.001   0.1% |
   rotate_psi:                       0.003     0.003   0.1% |
  calc. matrices:                    0.062     0.029   1.7% ||
   Apply hamiltonian:                0.033     0.033   1.9% ||
  diagonalize:                       0.001     0.001   0.1% |
  rotate_psi:                        0.003     0.003   0.2% |
 Density:                            0.369     0.000   0.0% |
  Atomic density matrices:           0.004     0.004   0.3% |
  Mix:                               0.061     0.061   3.6% ||
  Multipole moments:                 0.000     0.000   0.0% |
  Pseudo density:                    0.303     0.002   0.1% |
   Symmetrize density:               0.301     0.301  17.7% |------|
 Hamiltonian:                        0.964     0.002   0.1% |
  Atomic:                            0.034     0.002   0.1% |
   XC Correction:                    0.032     0.032   1.9% ||
  Calculate atomic Hamiltonians:     0.002     0.002   0.1% |
  Communicate:                       0.000     0.000   0.0% |
  Hartree integrate/restrict:        0.035     0.035   2.1% ||
  Poisson:                           0.260     0.012   0.7% |
   Communicate from 1D:              0.031     0.031   1.8% ||
   Communicate from 2D:              0.030     0.030   1.8% ||
   Communicate to 1D:                0.036     0.036   2.1% ||
   Communicate to 2D:                0.032     0.032   1.9% ||
   FFT 1D:                           0.034     0.034   2.0% ||
   FFT 2D:                           0.085     0.085   5.0% |-|
  XC 3D grid:                        0.629     0.629  36.9% |--------------|
  vbar:                              0.003     0.003   0.2% |
 Orthonormalize:                     0.000     0.000   0.0% |
  calc_s_matrix:                     0.000     0.000   0.0% |
  inverse-cholesky:                  0.000     0.000   0.0% |
  projections:                       0.000     0.000   0.0% |
  rotate_psi_s:                      0.000     0.000   0.0% |
Set symmetry:                        0.002     0.002   0.1% |
Other:                               0.122     0.122   7.2% |--|
-----------------------------------------------------------
Total:                                         1.704 100.0%

Memory usage: 856.66 MiB
Date: Tue Feb  4 15:27:53 2025
