
  ___ ___ ___ _ _ _  
 |   |   |_  | | | | 
 | | | | | . | | | | 
 |__ |  _|___|_____|  25.1.0
 |___|_|             

User:   zoe@Zoes-MacBook-Air.local
Date:   Tue Feb  4 15:28:05 2025
Arch:   arm64
Pid:    79289
CWD:    /Users/zoe/Documents/Python/TIF320_Computitional_molecular_physics
Python: 3.12.2
gpaw:   /opt/anaconda3/envs/tif320env/lib/python3.12/site-packages/gpaw
_gpaw:  /opt/anaconda3/envs/tif320env/lib/python3.12/site-packages/
        _gpaw.cpython-312-darwin.so
ase:    /opt/anaconda3/envs/tif320env/lib/python3.12/site-packages/ase (version 3.24.0)
numpy:  /opt/anaconda3/envs/tif320env/lib/python3.12/site-packages/numpy (version 2.0.1)
scipy:  /opt/anaconda3/envs/tif320env/lib/python3.12/site-packages/scipy (version 1.15.1)
libxc:  7.0.0
units:  Angstrom and eV
cores: 1
OpenMP: False
OMP_NUM_THREADS: 1

Input parameters:
  mode: {ecut: 200.0,
         name: pw}

System changes: positions, numbers, cell, pbc, initial_charges, initial_magmoms 

Initialize ...

species:
  H:
    name: Hydrogen
    id: 4766778ce56282eaa64abeb28b7c1de3
    Z: 1.0
    valence: 1
    core: 0
    charge: 0.0
    file: /opt/anaconda3/envs/tif320env/gpaw-setups/gpaw-setups-24.11.0/H.LDA.gz
    compensation charges: {type: gauss,
                           rc: 0.15,
                           lmax: 2}
    cutoffs: {filter: 0.85,
              core: 0.53}
    projectors:
      #              energy  rcut
      - 1s(1.00)    -6.353   0.476
      -  s          20.858   0.476
      -  p           0.000   0.476
  
    # Using partial waves for H as LCAO basis

Reference energy: -12.128958  # eV

Spin-polarized calculation.
Magnetic moment: 1.000000

Convergence criteria:
 Maximum [total energy] change in last 3 cyles: 0.0005 eV / valence electron
 Maximum integral of absolute [dens]ity change: 0.0001 electrons / valence electron
 Maximum integral of absolute [eigenst]ate change: 4e-08 eV^2 / valence electron
 Maximum number of scf [iter]ations: 333
 (Square brackets indicate name in SCF output, whereas a 'c' in
 the SCF output indicates the quantity has converged.)

Symmetries present (total): 48

  ( 1  0  0)  ( 1  0  0)  ( 1  0  0)  ( 1  0  0)  ( 1  0  0)  ( 1  0  0)
  ( 0  1  0)  ( 0  1  0)  ( 0  0  1)  ( 0  0  1)  ( 0  0 -1)  ( 0  0 -1)
  ( 0  0  1)  ( 0  0 -1)  ( 0  1  0)  ( 0 -1  0)  ( 0  1  0)  ( 0 -1  0)

  ( 1  0  0)  ( 1  0  0)  ( 0  1  0)  ( 0  1  0)  ( 0  1  0)  ( 0  1  0)
  ( 0 -1  0)  ( 0 -1  0)  ( 1  0  0)  ( 1  0  0)  ( 0  0  1)  ( 0  0  1)
  ( 0  0  1)  ( 0  0 -1)  ( 0  0  1)  ( 0  0 -1)  ( 1  0  0)  (-1  0  0)

  ( 0  1  0)  ( 0  1  0)  ( 0  1  0)  ( 0  1  0)  ( 0  0  1)  ( 0  0  1)
  ( 0  0 -1)  ( 0  0 -1)  (-1  0  0)  (-1  0  0)  ( 1  0  0)  ( 1  0  0)
  ( 1  0  0)  (-1  0  0)  ( 0  0  1)  ( 0  0 -1)  ( 0  1  0)  ( 0 -1  0)

  ( 0  0  1)  ( 0  0  1)  ( 0  0  1)  ( 0  0  1)  ( 0  0  1)  ( 0  0  1)
  ( 0  1  0)  ( 0  1  0)  ( 0 -1  0)  ( 0 -1  0)  (-1  0  0)  (-1  0  0)
  ( 1  0  0)  (-1  0  0)  ( 1  0  0)  (-1  0  0)  ( 0  1  0)  ( 0 -1  0)

  ( 0  0 -1)  ( 0  0 -1)  ( 0  0 -1)  ( 0  0 -1)  ( 0  0 -1)  ( 0  0 -1)
  ( 1  0  0)  ( 1  0  0)  ( 0  1  0)  ( 0  1  0)  ( 0 -1  0)  ( 0 -1  0)
  ( 0  1  0)  ( 0 -1  0)  ( 1  0  0)  (-1  0  0)  ( 1  0  0)  (-1  0  0)

  ( 0  0 -1)  ( 0  0 -1)  ( 0 -1  0)  ( 0 -1  0)  ( 0 -1  0)  ( 0 -1  0)
  (-1  0  0)  (-1  0  0)  ( 1  0  0)  ( 1  0  0)  ( 0  0  1)  ( 0  0  1)
  ( 0  1  0)  ( 0 -1  0)  ( 0  0  1)  ( 0  0 -1)  ( 1  0  0)  (-1  0  0)

  ( 0 -1  0)  ( 0 -1  0)  ( 0 -1  0)  ( 0 -1  0)  (-1  0  0)  (-1  0  0)
  ( 0  0 -1)  ( 0  0 -1)  (-1  0  0)  (-1  0  0)  ( 0  1  0)  ( 0  1  0)
  ( 1  0  0)  (-1  0  0)  ( 0  0  1)  ( 0  0 -1)  ( 0  0  1)  ( 0  0 -1)

  (-1  0  0)  (-1  0  0)  (-1  0  0)  (-1  0  0)  (-1  0  0)  (-1  0  0)
  ( 0  0  1)  ( 0  0  1)  ( 0  0 -1)  ( 0  0 -1)  ( 0 -1  0)  ( 0 -1  0)
  ( 0  1  0)  ( 0 -1  0)  ( 0  1  0)  ( 0 -1  0)  ( 0  0  1)  ( 0  0 -1)

1 k-point (Gamma)
1 k-point in the irreducible part of the Brillouin zone
       k-points in crystal coordinates                weights
   0:     0.00000000    0.00000000    0.00000000          1/1

Wave functions: Plane wave expansion
  Cutoff energy: 200.000 eV
  Number of coefficients: 3287 (reduced to 1644)
  Pulay-stress correction: 0.000000 eV/Ang^3 (de/decut=0.000000)
  Using Numpy's FFT
  ScaLapack parameters: grid=1x1, blocksize=None
  Wavefunction extrapolation:
    Improved wavefunction reuse through dual PAW basis 

Occupation numbers: # Zero width 

Eigensolver
   Davidson(niter=2) 

Densities:
  Coarse grid: 27*27*27 grid
  Fine grid: 54*54*54 grid
  Total Charge: 0.000000 

Density mixing:
  Method: difference
  Backend: pulay
  Linear mixing parameter: 0.05
  old densities: 5
  Damping of long wavelength oscillations: 50 

Hamiltonian:
  XC and Coulomb potentials evaluated on a 54*54*54 grid
  Using the LDA Exchange-Correlation functional
  External potential:
    NoExternalPotential
 

Memory estimate:
  Process memory now: 856.66 MiB
  Calculator: 15.50 MiB
    Density: 10.83 MiB
      Arrays: 5.26 MiB
      Localized functions: 3.47 MiB
      Mixer: 2.10 MiB
    Hamiltonian: 3.98 MiB
      Arrays: 3.90 MiB
      XC: 0.00 MiB
      Poisson: 0.00 MiB
      vbar: 0.07 MiB
    Wavefunctions: 0.70 MiB
      Arrays psit_nG: 0.05 MiB
      Eigensolver: 0.15 MiB
      Projections: 0.00 MiB
      Projectors: 0.09 MiB
      PW-descriptor: 0.41 MiB

Total number of cores used: 1

Number of atoms: 1
Number of atomic orbitals: 1
Number of bands in calculation: 1
Number of valence electrons: 1
Bands to converge: occupied

... initialized

Initializing position-dependent things.

Density initialized from atomic densities
Creating initial wave functions:
  1 band from LCAO basis set

      .-------------------.  
     /|                   |  
    / |                   |  
   /  |                   |  
  /   |                   |  
 *    |                   |  
 |    |                   |  
 |    |       H           |  
 |    |                   |  
 |    |                   |  
 |    .-------------------.  
 |   /                   /   
 |  /                   /    
 | /                   /     
 |/                   /      
 *-------------------*       

Positions:
   0 H      4.000000    4.000000    4.000000    ( 0.0000,  0.0000,  1.0000)

Unit cell:
           periodic     x           y           z      points  spacing
  1. axis:    no     8.000000    0.000000    0.000000    27     0.2963
  2. axis:    no     0.000000    8.000000    0.000000    27     0.2963
  3. axis:    no     0.000000    0.000000    8.000000    27     0.2963

  Lengths:   8.000000   8.000000   8.000000
  Angles:   90.000000  90.000000  90.000000

Effective grid spacing dv^(1/3) = 0.2963

     iter     time        total  log10-change:  magmom
                         energy   eigst   dens
iter:   1 15:28:05    -0.765856                   +1.0000
iter:   2 15:28:05    -0.820542   -2.67  -1.21    +1.0000
iter:   3 15:28:05    -0.869257   -3.31  -1.20    +1.0000
iter:   4 15:28:05    -0.779282   -2.97  -1.12    +1.0000
iter:   5 15:28:05    -0.775674   -4.61  -2.71    +1.0000
iter:   6 15:28:05    -0.774134   -4.36  -2.51    +1.0000
iter:   7 15:28:05    -0.772272   -5.23  -2.32    +1.0000
iter:   8 15:28:05    -0.771500   -5.48  -2.57    +1.0000
iter:   9 15:28:05    -0.772040   -6.27  -2.97    +1.0000
iter:  10 15:28:05    -0.771215   -5.98  -2.77    +1.0000
iter:  11 15:28:05    -0.770828   -6.13  -3.00    +1.0000
iter:  12 15:28:05    -0.770732c  -7.12  -4.14c   +1.0000
iter:  13 15:28:05    -0.771524   -6.15  -3.95    +1.0000
iter:  14 15:28:05    -0.770921   -6.05  -3.98    +1.0000
iter:  15 15:28:05    -0.770866   -8.23c -3.77    +1.0000
iter:  16 15:28:05    -0.770911c  -8.62c -3.87    +1.0000
iter:  17 15:28:05    -0.770981c  -8.51c -3.76    +1.0000
iter:  18 15:28:05    -0.770905c  -8.54c -3.62    +1.0000
iter:  19 15:28:05    -0.770704c  -7.62c -3.77    +1.0000
iter:  20 15:28:05    -0.770807c  -8.28c -4.91c   +1.0000

Converged after 20 iterations.

Dipole moment: (0.000000, 0.000000, 0.000000) |e|*Ang

Total magnetic moment: (0.000000, 0.000000, 1.000000)
Local magnetic moments:
   0 H  ( 0.000000,  0.000000,  0.235136)

Energy contributions relative to reference atoms: (reference = -12.128958)

Kinetic:         +0.269678
Potential:       +0.044760
External:        +0.000000
XC:              -1.076264
Entropy (-ST):   +0.000000
Local:           -0.008980
SIC:             +0.000000
--------------------------
Free energy:     -0.770807
Extrapolated:    -0.770807

Spin contamination: 0.000006 electrons
                   Up                     Down
 Band  Eigenvalues  Occupancy  Eigenvalues  Occupancy
    0     -7.17590    1.00000     -2.64315    0.00000

Fermi level: -4.90953

Could not find a gap
Timing:                              incl.     excl.
-----------------------------------------------------------
Hamiltonian:                         0.018     0.001   0.1% |
 Atomic:                             0.002     0.000   0.0% |
  XC Correction:                     0.002     0.002   0.2% |
 Calculate atomic Hamiltonians:      0.001     0.001   0.1% |
 Communicate:                        0.000     0.000   0.0% |
 Initialize Hamiltonian:             0.000     0.000   0.0% |
 Poisson:                            0.000     0.000   0.0% |
 XC 3D grid:                         0.015     0.015   1.9% ||
LCAO initialization:                 0.003     0.001   0.1% |
 LCAO eigensolver:                   0.000     0.000   0.0% |
  Calculate projections:             0.000     0.000   0.0% |
  DenseAtomicCorrection:             0.000     0.000   0.0% |
  Distribute overlap matrix:         0.000     0.000   0.0% |
  Orbital Layouts:                   0.000     0.000   0.0% |
  Potential matrix:                  0.000     0.000   0.0% |
 LCAO to grid:                       0.001     0.001   0.1% |
 Set positions (LCAO WFS):           0.001     0.000   0.0% |
  Basic WFS set positions:           0.000     0.000   0.0% |
  Basis functions set positions:     0.000     0.000   0.0% |
  P tci:                             0.000     0.000   0.0% |
  ST tci:                            0.000     0.000   0.0% |
  mktci:                             0.001     0.001   0.1% |
PWDescriptor:                        0.000     0.000   0.0% |
SCF-cycle:                           0.724     0.004   0.5% |
 Davidson:                           0.086     0.011   1.5% ||
  Apply H:                           0.014     0.014   1.8% ||
   HMM T:                            0.000     0.000   0.0% |
  Subspace diag:                     0.021     0.001   0.1% |
   calc_h_matrix:                    0.019     0.003   0.4% |
    Apply H:                         0.016     0.015   2.0% ||
     HMM T:                          0.000     0.000   0.0% |
   diagonalize:                      0.001     0.001   0.1% |
   rotate_psi:                       0.001     0.001   0.1% |
  calc. matrices:                    0.037     0.011   1.4% ||
   Apply H:                          0.026     0.026   3.4% ||
    HMM T:                           0.000     0.000   0.0% |
  diagonalize:                       0.002     0.002   0.2% |
  rotate_psi:                        0.001     0.001   0.1% |
 Density:                            0.256     0.000   0.0% |
  Atomic density matrices:           0.005     0.005   0.7% |
  Mix:                               0.119     0.119  15.2% |-----|
  Multipole moments:                 0.000     0.000   0.1% |
  Pseudo density:                    0.131     0.009   1.2% |
   Symmetrize density:               0.122     0.122  15.7% |-----|
 Hamiltonian:                        0.378     0.015   1.9% ||
  Atomic:                            0.039     0.002   0.3% |
   XC Correction:                    0.037     0.037   4.8% |-|
  Calculate atomic Hamiltonians:     0.017     0.017   2.2% ||
  Communicate:                       0.000     0.000   0.0% |
  Poisson:                           0.003     0.003   0.4% |
  XC 3D grid:                        0.304     0.304  39.0% |---------------|
 Orthonormalize:                     0.000     0.000   0.0% |
  calc_s_matrix:                     0.000     0.000   0.0% |
  inverse-cholesky:                  0.000     0.000   0.0% |
  projections:                       0.000     0.000   0.0% |
  rotate_psi_s:                      0.000     0.000   0.0% |
Set symmetry:                        0.002     0.002   0.3% |
Other:                               0.031     0.031   4.0% |-|
-----------------------------------------------------------
Total:                                         0.778 100.0%

Memory usage: 856.66 MiB
Date: Tue Feb  4 15:28:05 2025
