
  ___ ___ ___ _ _ _  
 |   |   |_  | | | | 
 | | | | | . | | | | 
 |__ |  _|___|_____|  25.1.0
 |___|_|             

User:   zoe@Zoes-MacBook-Air.local
Date:   Tue Feb  4 15:27:17 2025
Arch:   arm64
Pid:    79289
CWD:    /Users/zoe/Documents/Python/TIF320_Computitional_molecular_physics
Python: 3.12.2
gpaw:   /opt/anaconda3/envs/tif320env/lib/python3.12/site-packages/gpaw
_gpaw:  /opt/anaconda3/envs/tif320env/lib/python3.12/site-packages/
        _gpaw.cpython-312-darwin.so
ase:    /opt/anaconda3/envs/tif320env/lib/python3.12/site-packages/ase (version 3.24.0)
numpy:  /opt/anaconda3/envs/tif320env/lib/python3.12/site-packages/numpy (version 2.0.1)
scipy:  /opt/anaconda3/envs/tif320env/lib/python3.12/site-packages/scipy (version 1.15.1)
libxc:  7.0.0
units:  Angstrom and eV
cores: 1
OpenMP: False
OMP_NUM_THREADS: 1

Input parameters:
  mode: {ecut: 400.0,
         name: pw}
  xc: PBE

System changes: positions, numbers, cell, pbc, initial_charges, initial_magmoms 

Initialize ...

species:
  H:
    name: Hydrogen
    id: d65de229564ff8ea4db303e23b6d1ecf
    Z: 1.0
    valence: 1
    core: 0
    charge: 0.0
    file: /opt/anaconda3/envs/tif320env/gpaw-setups/gpaw-setups-24.11.0/H.PBE.gz
    compensation charges: {type: gauss,
                           rc: 0.15,
                           lmax: 2}
    cutoffs: {filter: 0.85,
              core: 0.53}
    projectors:
      #              energy  rcut
      - 1s(1.00)    -6.494   0.476
      -  s          20.717   0.476
      -  p           0.000   0.476
  
    # Using partial waves for H as LCAO basis

Reference energy: -12.490162  # eV

Spin-polarized calculation.
Magnetic moment: 1.000000

Convergence criteria:
 Maximum [total energy] change in last 3 cyles: 0.0005 eV / valence electron
 Maximum integral of absolute [dens]ity change: 0.0001 electrons / valence electron
 Maximum integral of absolute [eigenst]ate change: 4e-08 eV^2 / valence electron
 Maximum number of scf [iter]ations: 333
 (Square brackets indicate name in SCF output, whereas a 'c' in
 the SCF output indicates the quantity has converged.)

Symmetries present (total): 48

  ( 1  0  0)  ( 1  0  0)  ( 1  0  0)  ( 1  0  0)  ( 1  0  0)  ( 1  0  0)
  ( 0  1  0)  ( 0  1  0)  ( 0  0  1)  ( 0  0  1)  ( 0  0 -1)  ( 0  0 -1)
  ( 0  0  1)  ( 0  0 -1)  ( 0  1  0)  ( 0 -1  0)  ( 0  1  0)  ( 0 -1  0)

  ( 1  0  0)  ( 1  0  0)  ( 0  1  0)  ( 0  1  0)  ( 0  1  0)  ( 0  1  0)
  ( 0 -1  0)  ( 0 -1  0)  ( 1  0  0)  ( 1  0  0)  ( 0  0  1)  ( 0  0  1)
  ( 0  0  1)  ( 0  0 -1)  ( 0  0  1)  ( 0  0 -1)  ( 1  0  0)  (-1  0  0)

  ( 0  1  0)  ( 0  1  0)  ( 0  1  0)  ( 0  1  0)  ( 0  0  1)  ( 0  0  1)
  ( 0  0 -1)  ( 0  0 -1)  (-1  0  0)  (-1  0  0)  ( 1  0  0)  ( 1  0  0)
  ( 1  0  0)  (-1  0  0)  ( 0  0  1)  ( 0  0 -1)  ( 0  1  0)  ( 0 -1  0)

  ( 0  0  1)  ( 0  0  1)  ( 0  0  1)  ( 0  0  1)  ( 0  0  1)  ( 0  0  1)
  ( 0  1  0)  ( 0  1  0)  ( 0 -1  0)  ( 0 -1  0)  (-1  0  0)  (-1  0  0)
  ( 1  0  0)  (-1  0  0)  ( 1  0  0)  (-1  0  0)  ( 0  1  0)  ( 0 -1  0)

  ( 0  0 -1)  ( 0  0 -1)  ( 0  0 -1)  ( 0  0 -1)  ( 0  0 -1)  ( 0  0 -1)
  ( 1  0  0)  ( 1  0  0)  ( 0  1  0)  ( 0  1  0)  ( 0 -1  0)  ( 0 -1  0)
  ( 0  1  0)  ( 0 -1  0)  ( 1  0  0)  (-1  0  0)  ( 1  0  0)  (-1  0  0)

  ( 0  0 -1)  ( 0  0 -1)  ( 0 -1  0)  ( 0 -1  0)  ( 0 -1  0)  ( 0 -1  0)
  (-1  0  0)  (-1  0  0)  ( 1  0  0)  ( 1  0  0)  ( 0  0  1)  ( 0  0  1)
  ( 0  1  0)  ( 0 -1  0)  ( 0  0  1)  ( 0  0 -1)  ( 1  0  0)  (-1  0  0)

  ( 0 -1  0)  ( 0 -1  0)  ( 0 -1  0)  ( 0 -1  0)  (-1  0  0)  (-1  0  0)
  ( 0  0 -1)  ( 0  0 -1)  (-1  0  0)  (-1  0  0)  ( 0  1  0)  ( 0  1  0)
  ( 1  0  0)  (-1  0  0)  ( 0  0  1)  ( 0  0 -1)  ( 0  0  1)  ( 0  0 -1)

  (-1  0  0)  (-1  0  0)  (-1  0  0)  (-1  0  0)  (-1  0  0)  (-1  0  0)
  ( 0  0  1)  ( 0  0  1)  ( 0  0 -1)  ( 0  0 -1)  ( 0 -1  0)  ( 0 -1  0)
  ( 0  1  0)  ( 0 -1  0)  ( 0  1  0)  ( 0 -1  0)  ( 0  0  1)  ( 0  0 -1)

1 k-point (Gamma)
1 k-point in the irreducible part of the Brillouin zone
       k-points in crystal coordinates                weights
   0:     0.00000000    0.00000000    0.00000000          1/1

Wave functions: Plane wave expansion
  Cutoff energy: 400.000 eV
  Number of coefficients: 9315 (reduced to 4658)
  Pulay-stress correction: 0.000000 eV/Ang^3 (de/decut=0.000000)
  Using Numpy's FFT
  ScaLapack parameters: grid=1x1, blocksize=None
  Wavefunction extrapolation:
    Improved wavefunction reuse through dual PAW basis 

Occupation numbers: # Zero width 

Eigensolver
   Davidson(niter=2) 

Densities:
  Coarse grid: 40*40*40 grid
  Fine grid: 80*80*80 grid
  Total Charge: 0.000000 

Density mixing:
  Method: difference
  Backend: pulay
  Linear mixing parameter: 0.05
  old densities: 5
  Damping of long wavelength oscillations: 50 

Hamiltonian:
  XC and Coulomb potentials evaluated on a 80*80*80 grid
  Using the PBE Exchange-Correlation functional
  External potential:
    NoExternalPotential
 

XC parameters: PBE with 2 nearest neighbor stencil

Memory estimate:
  Process memory now: 636.08 MiB
  Calculator: 48.80 MiB
    Density: 33.76 MiB
      Arrays: 17.09 MiB
      Localized functions: 9.83 MiB
      Mixer: 6.84 MiB
    Hamiltonian: 12.90 MiB
      Arrays: 12.70 MiB
      XC: 0.00 MiB
      Poisson: 0.00 MiB
      vbar: 0.20 MiB
    Wavefunctions: 2.15 MiB
      Arrays psit_nG: 0.14 MiB
      Eigensolver: 0.43 MiB
      Projections: 0.00 MiB
      Projectors: 0.25 MiB
      PW-descriptor: 1.33 MiB

Total number of cores used: 1

Number of atoms: 1
Number of atomic orbitals: 1
Number of bands in calculation: 1
Number of valence electrons: 1
Bands to converge: occupied

... initialized

Initializing position-dependent things.

Density initialized from atomic densities
Creating initial wave functions:
  1 band from LCAO basis set

      .-------------------.  
     /|                   |  
    / |                   |  
   /  |                   |  
  /   |                   |  
 *    |                   |  
 |    |                   |  
 |    |       H           |  
 |    |                   |  
 |    |                   |  
 |    .-------------------.  
 |   /                   /   
 |  /                   /    
 | /                   /     
 |/                   /      
 *-------------------*       

Positions:
   0 H      4.000000    4.000000    4.000000    ( 0.0000,  0.0000,  1.0000)

Unit cell:
           periodic     x           y           z      points  spacing
  1. axis:    no     8.000000    0.000000    0.000000    40     0.2000
  2. axis:    no     0.000000    8.000000    0.000000    40     0.2000
  3. axis:    no     0.000000    0.000000    8.000000    40     0.2000

  Lengths:   8.000000   8.000000   8.000000
  Angles:   90.000000  90.000000  90.000000

Effective grid spacing dv^(1/3) = 0.2000

     iter     time        total  log10-change:  magmom
                         energy   eigst   dens
iter:   1 15:27:18    -1.100962                   +1.0000
iter:   2 15:27:18     2.935576   -2.06  -1.16    +1.0000
iter:   3 15:27:18     9.193099   -2.33  -1.12    +1.0000
iter:   4 15:27:18     1.587809   -1.92  -0.93    +1.0000
iter:   5 15:27:18     0.997699   -3.41  -2.23    +1.0000
iter:   6 15:27:18    -1.020023   -2.85  -2.58    +1.0000
iter:   7 15:27:19    -1.072029   -3.22  -1.75    +1.0000
iter:   8 15:27:19    -0.998726   -5.33  -2.63    +1.0000
iter:   9 15:27:19    -1.086745   -5.91  -3.19    +1.0000
iter:  10 15:27:19    -1.077228   -6.06  -3.13    +1.0000
iter:  11 15:27:19    -1.096670   -5.88  -3.30    +1.0000
iter:  12 15:27:19    -1.095959   -8.21c -3.28    +1.0000
iter:  13 15:27:20    -1.096334   -7.59c -3.33    +1.0000
iter:  14 15:27:20    -1.096709   -6.93  -3.52    +1.0000
iter:  15 15:27:20    -1.097580   -6.46  -3.24    +1.0000
iter:  16 15:27:20    -1.097779   -7.41c -4.10c   +1.0000
iter:  17 15:27:20    -1.097663c  -8.73c -4.82c   +1.0000

Converged after 17 iterations.

Dipole moment: (0.000000, 0.000000, 0.000000) |e|*Ang

Total magnetic moment: (0.000000, 0.000000, 1.000000)
Local magnetic moments:
   0 H  ( 0.000000,  0.000000,  0.263087)

Energy contributions relative to reference atoms: (reference = -12.490162)

Kinetic:         +1.180060
Potential:       -0.773463
External:        +0.000000
XC:              -1.502389
Entropy (-ST):   +0.000000
Local:           -0.001870
SIC:             +0.000000
--------------------------
Free energy:     -1.097663
Extrapolated:    -1.097663

Spin contamination: 0.000000 electrons
                   Up                     Down
 Band  Eigenvalues  Occupancy  Eigenvalues  Occupancy
    0     -7.53966    1.00000      0.19232    0.00000

Fermi level: -3.67367

Could not find a gap
Timing:                              incl.     excl.
-----------------------------------------------------------
Hamiltonian:                         0.123     0.001   0.0% |
 Atomic:                             0.007     0.000   0.0% |
  XC Correction:                     0.007     0.007   0.2% |
 Calculate atomic Hamiltonians:      0.002     0.002   0.1% |
 Communicate:                        0.000     0.000   0.0% |
 Initialize Hamiltonian:             0.000     0.000   0.0% |
 Poisson:                            0.001     0.001   0.0% |
 XC 3D grid:                         0.112     0.112   4.0% |-|
LCAO initialization:                 0.003     0.001   0.0% |
 LCAO eigensolver:                   0.000     0.000   0.0% |
  Calculate projections:             0.000     0.000   0.0% |
  DenseAtomicCorrection:             0.000     0.000   0.0% |
  Distribute overlap matrix:         0.000     0.000   0.0% |
  Orbital Layouts:                   0.000     0.000   0.0% |
  Potential matrix:                  0.000     0.000   0.0% |
 LCAO to grid:                       0.001     0.001   0.0% |
 Set positions (LCAO WFS):           0.001     0.000   0.0% |
  Basic WFS set positions:           0.000     0.000   0.0% |
  Basis functions set positions:     0.000     0.000   0.0% |
  P tci:                             0.000     0.000   0.0% |
  ST tci:                            0.000     0.000   0.0% |
  mktci:                             0.001     0.001   0.0% |
PWDescriptor:                        0.001     0.001   0.0% |
SCF-cycle:                           2.635     0.004   0.1% |
 Davidson:                           0.142     0.021   0.7% |
  Apply H:                           0.024     0.024   0.9% |
   HMM T:                            0.000     0.000   0.0% |
  Subspace diag:                     0.032     0.001   0.0% |
   calc_h_matrix:                    0.030     0.003   0.1% |
    Apply H:                         0.027     0.026   0.9% |
     HMM T:                          0.000     0.000   0.0% |
   diagonalize:                      0.001     0.001   0.0% |
   rotate_psi:                       0.001     0.001   0.0% |
  calc. matrices:                    0.063     0.014   0.5% |
   Apply H:                          0.050     0.049   1.8% ||
    HMM T:                           0.000     0.000   0.0% |
  diagonalize:                       0.001     0.001   0.0% |
  rotate_psi:                        0.001     0.001   0.0% |
 Density:                            0.555     0.000   0.0% |
  Atomic density matrices:           0.004     0.004   0.2% |
  Mix:                               0.211     0.211   7.5% |--|
  Multipole moments:                 0.000     0.000   0.0% |
  Pseudo density:                    0.339     0.015   0.5% |
   Symmetrize density:               0.324     0.324  11.5% |----|
 Hamiltonian:                        1.934     0.012   0.4% |
  Atomic:                            0.107     0.002   0.1% |
   XC Correction:                    0.105     0.105   3.7% ||
  Calculate atomic Hamiltonians:     0.034     0.034   1.2% |
  Communicate:                       0.000     0.000   0.0% |
  Poisson:                           0.005     0.005   0.2% |
  XC 3D grid:                        1.776     1.776  63.0% |------------------------|
 Orthonormalize:                     0.000     0.000   0.0% |
  calc_s_matrix:                     0.000     0.000   0.0% |
  inverse-cholesky:                  0.000     0.000   0.0% |
  projections:                       0.000     0.000   0.0% |
  rotate_psi_s:                      0.000     0.000   0.0% |
Set symmetry:                        0.002     0.002   0.1% |
Other:                               0.053     0.053   1.9% ||
-----------------------------------------------------------
Total:                                         2.816 100.0%

Memory usage: 636.08 MiB
Date: Tue Feb  4 15:27:20 2025
