
  ___ ___ ___ _ _ _  
 |   |   |_  | | | | 
 | | | | | . | | | | 
 |__ |  _|___|_____|  25.1.0
 |___|_|             

User:   zoe@Zoes-MacBook-Air.local
Date:   Tue Feb  4 15:28:26 2025
Arch:   arm64
Pid:    79289
CWD:    /Users/zoe/Documents/Python/TIF320_Computitional_molecular_physics
Python: 3.12.2
gpaw:   /opt/anaconda3/envs/tif320env/lib/python3.12/site-packages/gpaw
_gpaw:  /opt/anaconda3/envs/tif320env/lib/python3.12/site-packages/
        _gpaw.cpython-312-darwin.so
ase:    /opt/anaconda3/envs/tif320env/lib/python3.12/site-packages/ase (version 3.24.0)
numpy:  /opt/anaconda3/envs/tif320env/lib/python3.12/site-packages/numpy (version 2.0.1)
scipy:  /opt/anaconda3/envs/tif320env/lib/python3.12/site-packages/scipy (version 1.15.1)
libxc:  7.0.0
units:  Angstrom and eV
cores: 1
OpenMP: False
OMP_NUM_THREADS: 1

Input parameters:
  mode: {ecut: 450.00000000000006,
         name: pw}

System changes: positions, numbers, cell, pbc, initial_charges, initial_magmoms 

Initialize ...

species:
  H:
    name: Hydrogen
    id: 4766778ce56282eaa64abeb28b7c1de3
    Z: 1.0
    valence: 1
    core: 0
    charge: 0.0
    file: /opt/anaconda3/envs/tif320env/gpaw-setups/gpaw-setups-24.11.0/H.LDA.gz
    compensation charges: {type: gauss,
                           rc: 0.15,
                           lmax: 2}
    cutoffs: {filter: 0.85,
              core: 0.53}
    projectors:
      #              energy  rcut
      - 1s(1.00)    -6.353   0.476
      -  s          20.858   0.476
      -  p           0.000   0.476
  
    # Using partial waves for H as LCAO basis

Reference energy: -12.128958  # eV

Spin-polarized calculation.
Magnetic moment: 1.000000

Convergence criteria:
 Maximum [total energy] change in last 3 cyles: 0.0005 eV / valence electron
 Maximum integral of absolute [dens]ity change: 0.0001 electrons / valence electron
 Maximum integral of absolute [eigenst]ate change: 4e-08 eV^2 / valence electron
 Maximum number of scf [iter]ations: 333
 (Square brackets indicate name in SCF output, whereas a 'c' in
 the SCF output indicates the quantity has converged.)

Symmetries present (total): 48

  ( 1  0  0)  ( 1  0  0)  ( 1  0  0)  ( 1  0  0)  ( 1  0  0)  ( 1  0  0)
  ( 0  1  0)  ( 0  1  0)  ( 0  0  1)  ( 0  0  1)  ( 0  0 -1)  ( 0  0 -1)
  ( 0  0  1)  ( 0  0 -1)  ( 0  1  0)  ( 0 -1  0)  ( 0  1  0)  ( 0 -1  0)

  ( 1  0  0)  ( 1  0  0)  ( 0  1  0)  ( 0  1  0)  ( 0  1  0)  ( 0  1  0)
  ( 0 -1  0)  ( 0 -1  0)  ( 1  0  0)  ( 1  0  0)  ( 0  0  1)  ( 0  0  1)
  ( 0  0  1)  ( 0  0 -1)  ( 0  0  1)  ( 0  0 -1)  ( 1  0  0)  (-1  0  0)

  ( 0  1  0)  ( 0  1  0)  ( 0  1  0)  ( 0  1  0)  ( 0  0  1)  ( 0  0  1)
  ( 0  0 -1)  ( 0  0 -1)  (-1  0  0)  (-1  0  0)  ( 1  0  0)  ( 1  0  0)
  ( 1  0  0)  (-1  0  0)  ( 0  0  1)  ( 0  0 -1)  ( 0  1  0)  ( 0 -1  0)

  ( 0  0  1)  ( 0  0  1)  ( 0  0  1)  ( 0  0  1)  ( 0  0  1)  ( 0  0  1)
  ( 0  1  0)  ( 0  1  0)  ( 0 -1  0)  ( 0 -1  0)  (-1  0  0)  (-1  0  0)
  ( 1  0  0)  (-1  0  0)  ( 1  0  0)  (-1  0  0)  ( 0  1  0)  ( 0 -1  0)

  ( 0  0 -1)  ( 0  0 -1)  ( 0  0 -1)  ( 0  0 -1)  ( 0  0 -1)  ( 0  0 -1)
  ( 1  0  0)  ( 1  0  0)  ( 0  1  0)  ( 0  1  0)  ( 0 -1  0)  ( 0 -1  0)
  ( 0  1  0)  ( 0 -1  0)  ( 1  0  0)  (-1  0  0)  ( 1  0  0)  (-1  0  0)

  ( 0  0 -1)  ( 0  0 -1)  ( 0 -1  0)  ( 0 -1  0)  ( 0 -1  0)  ( 0 -1  0)
  (-1  0  0)  (-1  0  0)  ( 1  0  0)  ( 1  0  0)  ( 0  0  1)  ( 0  0  1)
  ( 0  1  0)  ( 0 -1  0)  ( 0  0  1)  ( 0  0 -1)  ( 1  0  0)  (-1  0  0)

  ( 0 -1  0)  ( 0 -1  0)  ( 0 -1  0)  ( 0 -1  0)  (-1  0  0)  (-1  0  0)
  ( 0  0 -1)  ( 0  0 -1)  (-1  0  0)  (-1  0  0)  ( 0  1  0)  ( 0  1  0)
  ( 1  0  0)  (-1  0  0)  ( 0  0  1)  ( 0  0 -1)  ( 0  0  1)  ( 0  0 -1)

  (-1  0  0)  (-1  0  0)  (-1  0  0)  (-1  0  0)  (-1  0  0)  (-1  0  0)
  ( 0  0  1)  ( 0  0  1)  ( 0  0 -1)  ( 0  0 -1)  ( 0 -1  0)  ( 0 -1  0)
  ( 0  1  0)  ( 0 -1  0)  ( 0  1  0)  ( 0 -1  0)  ( 0  0  1)  ( 0  0 -1)

1 k-point (Gamma)
1 k-point in the irreducible part of the Brillouin zone
       k-points in crystal coordinates                weights
   0:     0.00000000    0.00000000    0.00000000          1/1

Wave functions: Plane wave expansion
  Cutoff energy: 450.000 eV
  Number of coefficients: 11067 (reduced to 5534)
  Pulay-stress correction: 0.000000 eV/Ang^3 (de/decut=0.000000)
  Using Numpy's FFT
  ScaLapack parameters: grid=1x1, blocksize=None
  Wavefunction extrapolation:
    Improved wavefunction reuse through dual PAW basis 

Occupation numbers: # Zero width 

Eigensolver
   Davidson(niter=2) 

Densities:
  Coarse grid: 40*40*40 grid
  Fine grid: 80*80*80 grid
  Total Charge: 0.000000 

Density mixing:
  Method: difference
  Backend: pulay
  Linear mixing parameter: 0.05
  old densities: 5
  Damping of long wavelength oscillations: 50 

Hamiltonian:
  XC and Coulomb potentials evaluated on a 80*80*80 grid
  Using the LDA Exchange-Correlation functional
  External potential:
    NoExternalPotential
 

Memory estimate:
  Process memory now: 915.92 MiB
  Calculator: 50.92 MiB
    Density: 35.68 MiB
      Arrays: 17.09 MiB
      Localized functions: 11.75 MiB
      Mixer: 6.84 MiB
    Hamiltonian: 12.94 MiB
      Arrays: 12.70 MiB
      XC: 0.00 MiB
      Poisson: 0.00 MiB
      vbar: 0.24 MiB
    Wavefunctions: 2.31 MiB
      Arrays psit_nG: 0.17 MiB
      Eigensolver: 0.51 MiB
      Projections: 0.00 MiB
      Projectors: 0.30 MiB
      PW-descriptor: 1.34 MiB

Total number of cores used: 1

Number of atoms: 1
Number of atomic orbitals: 1
Number of bands in calculation: 1
Number of valence electrons: 1
Bands to converge: occupied

... initialized

Initializing position-dependent things.

Density initialized from atomic densities
Creating initial wave functions:
  1 band from LCAO basis set

      .-------------------.  
     /|                   |  
    / |                   |  
   /  |                   |  
  /   |                   |  
 *    |                   |  
 |    |                   |  
 |    |       H           |  
 |    |                   |  
 |    |                   |  
 |    .-------------------.  
 |   /                   /   
 |  /                   /    
 | /                   /     
 |/                   /      
 *-------------------*       

Positions:
   0 H      4.000000    4.000000    4.000000    ( 0.0000,  0.0000,  1.0000)

Unit cell:
           periodic     x           y           z      points  spacing
  1. axis:    no     8.000000    0.000000    0.000000    40     0.2000
  2. axis:    no     0.000000    8.000000    0.000000    40     0.2000
  3. axis:    no     0.000000    0.000000    8.000000    40     0.2000

  Lengths:   8.000000   8.000000   8.000000
  Angles:   90.000000  90.000000  90.000000

Effective grid spacing dv^(1/3) = 0.2000

     iter     time        total  log10-change:  magmom
                         energy   eigst   dens
iter:   1 15:28:26    -0.892300                   +1.0000
iter:   2 15:28:27    -0.952579   -2.05  -1.19    +1.0000
iter:   3 15:28:27    -1.051726   -2.44  -1.15    +1.0000
iter:   4 15:28:27    -0.927868   -2.13  -0.97    +1.0000
iter:   5 15:28:27    -0.915695   -3.45  -2.10    +1.0000
iter:   6 15:28:27    -1.052442   -2.44  -2.85    +1.0000
iter:   7 15:28:27    -0.894043   -2.28  -1.97    +1.0000
iter:   8 15:28:27    -0.891531   -4.81  -2.11    +1.0000
iter:   9 15:28:27    -0.903084   -3.75  -2.66    +1.0000
iter:  10 15:28:27    -0.906318   -4.74  -1.93    +1.0000
iter:  11 15:28:27    -0.906862   -6.44  -1.83    +1.0000
iter:  12 15:28:28    -0.891898   -3.69  -1.85    +1.0000
iter:  13 15:28:28    -0.890774   -5.00  -2.69    +1.0000
iter:  14 15:28:28    -0.891396   -6.56  -2.55    +1.0000
iter:  15 15:28:28    -0.891343   -7.24  -2.84    +1.0000
iter:  16 15:28:28    -0.892069   -5.34  -2.72    +1.0000
iter:  17 15:28:28    -0.891821   -6.50  -2.41    +1.0000
iter:  18 15:28:28    -0.892123c  -4.55  -2.48    +1.0000
iter:  19 15:28:28    -0.890481   -5.71  -2.80    +1.0000
iter:  20 15:28:28    -0.890698   -6.90  -4.36c   +1.0000
iter:  21 15:28:28    -0.890554c  -6.59  -4.30c   +1.0000
iter:  22 15:28:29    -0.890355c  -7.57c -3.89    +1.0000
iter:  23 15:28:29    -0.890371c  -8.16c -4.26c   +1.0000

Converged after 23 iterations.

Dipole moment: (0.000000, 0.000000, 0.000000) |e|*Ang

Total magnetic moment: (0.000000, 0.000000, 1.000000)
Local magnetic moments:
   0 H  ( 0.000000,  0.000000,  0.249187)

Energy contributions relative to reference atoms: (reference = -12.128958)

Kinetic:         +1.084280
Potential:       -0.744447
External:        +0.000000
XC:              -1.229304
Entropy (-ST):   +0.000000
Local:           -0.000900
SIC:             +0.000000
--------------------------
Free energy:     -0.890371
Extrapolated:    -0.890371

Spin contamination: 0.000000 electrons
                   Up                     Down
 Band  Eigenvalues  Occupancy  Eigenvalues  Occupancy
    0     -7.26718    1.00000     -2.68229    0.00000

Fermi level: -4.97473

Could not find a gap
Timing:                              incl.     excl.
-----------------------------------------------------------
Hamiltonian:                         0.056     0.001   0.1% |
 Atomic:                             0.002     0.000   0.0% |
  XC Correction:                     0.002     0.002   0.1% |
 Calculate atomic Hamiltonians:      0.002     0.002   0.1% |
 Communicate:                        0.000     0.000   0.0% |
 Initialize Hamiltonian:             0.000     0.000   0.0% |
 Poisson:                            0.001     0.001   0.0% |
 XC 3D grid:                         0.050     0.050   2.2% ||
LCAO initialization:                 0.004     0.001   0.0% |
 LCAO eigensolver:                   0.000     0.000   0.0% |
  Calculate projections:             0.000     0.000   0.0% |
  DenseAtomicCorrection:             0.000     0.000   0.0% |
  Distribute overlap matrix:         0.000     0.000   0.0% |
  Orbital Layouts:                   0.000     0.000   0.0% |
  Potential matrix:                  0.000     0.000   0.0% |
 LCAO to grid:                       0.001     0.001   0.1% |
 Set positions (LCAO WFS):           0.001     0.000   0.0% |
  Basic WFS set positions:           0.000     0.000   0.0% |
  Basis functions set positions:     0.000     0.000   0.0% |
  P tci:                             0.000     0.000   0.0% |
  ST tci:                            0.000     0.000   0.0% |
  mktci:                             0.001     0.001   0.0% |
PWDescriptor:                        0.001     0.001   0.0% |
SCF-cycle:                           2.180     0.004   0.2% |
 Davidson:                           0.189     0.028   1.2% |
  Apply H:                           0.035     0.034   1.5% ||
   HMM T:                            0.000     0.000   0.0% |
  Subspace diag:                     0.041     0.001   0.0% |
   calc_h_matrix:                    0.038     0.003   0.2% |
    Apply H:                         0.035     0.034   1.5% ||
     HMM T:                          0.000     0.000   0.0% |
   diagonalize:                      0.001     0.001   0.1% |
   rotate_psi:                       0.001     0.001   0.0% |
  calc. matrices:                    0.083     0.014   0.6% |
   Apply H:                          0.069     0.068   3.0% ||
    HMM T:                           0.001     0.001   0.0% |
  diagonalize:                       0.002     0.002   0.1% |
  rotate_psi:                        0.001     0.001   0.1% |
 Density:                            0.789     0.000   0.0% |
  Atomic density matrices:           0.006     0.006   0.3% |
  Mix:                               0.315     0.315  13.7% |----|
  Multipole moments:                 0.000     0.000   0.0% |
  Pseudo density:                    0.468     0.023   1.0% |
   Symmetrize density:               0.445     0.445  19.3% |-------|
 Hamiltonian:                        1.197     0.019   0.8% |
  Atomic:                            0.045     0.002   0.1% |
   XC Correction:                    0.043     0.043   1.9% ||
  Calculate atomic Hamiltonians:     0.054     0.054   2.4% ||
  Communicate:                       0.000     0.000   0.0% |
  Poisson:                           0.008     0.008   0.4% |
  XC 3D grid:                        1.070     1.070  46.6% |------------------|
 Orthonormalize:                     0.001     0.000   0.0% |
  calc_s_matrix:                     0.000     0.000   0.0% |
  inverse-cholesky:                  0.000     0.000   0.0% |
  projections:                       0.000     0.000   0.0% |
  rotate_psi_s:                      0.000     0.000   0.0% |
Set symmetry:                        0.002     0.002   0.1% |
Other:                               0.057     0.057   2.5% ||
-----------------------------------------------------------
Total:                                         2.299 100.0%

Memory usage: 915.92 MiB
Date: Tue Feb  4 15:28:29 2025
