
  ___ ___ ___ _ _ _  
 |   |   |_  | | | | 
 | | | | | . | | | | 
 |__ |  _|___|_____|  25.1.0
 |___|_|             

User:   zoe@Zoes-MacBook-Air.local
Date:   Tue Feb  4 15:27:25 2025
Arch:   arm64
Pid:    79289
CWD:    /Users/zoe/Documents/Python/TIF320_Computitional_molecular_physics
Python: 3.12.2
gpaw:   /opt/anaconda3/envs/tif320env/lib/python3.12/site-packages/gpaw
_gpaw:  /opt/anaconda3/envs/tif320env/lib/python3.12/site-packages/
        _gpaw.cpython-312-darwin.so
ase:    /opt/anaconda3/envs/tif320env/lib/python3.12/site-packages/ase (version 3.24.0)
numpy:  /opt/anaconda3/envs/tif320env/lib/python3.12/site-packages/numpy (version 2.0.1)
scipy:  /opt/anaconda3/envs/tif320env/lib/python3.12/site-packages/scipy (version 1.15.1)
libxc:  7.0.0
units:  Angstrom and eV
cores: 1
OpenMP: False
OMP_NUM_THREADS: 1

Input parameters:
  basis: dzp
  mode: lcao
  xc: PBE

System changes: positions, numbers, cell, pbc, initial_charges, initial_magmoms 

Initialize ...

species:
  H:
    name: Hydrogen
    id: d65de229564ff8ea4db303e23b6d1ecf
    Z: 1.0
    valence: 1
    core: 0
    charge: 0.0
    file: /opt/anaconda3/envs/tif320env/gpaw-setups/gpaw-setups-24.11.0/H.PBE.gz
    compensation charges: {type: gauss,
                           rc: 0.15,
                           lmax: 2}
    cutoffs: {filter: 0.85,
              core: 0.53}
    projectors:
      #              energy  rcut
      - 1s(1.00)    -6.494   0.476
      -  s          20.717   0.476
      -  p           0.000   0.476
  
    # LCAO basis set for H:
    #   Name: dzp
    #   File: /opt/anaconda3/envs/tif320env/gpaw-setups/gpaw-setups-24.11.0/H.dzp.basis.gz
    #   Number of radial functions: 3
    #   Number of spherical harmonics: 5
    #     l=0, rc=6.4219 Bohr: 1s-sz confined orbital
    #     l=0, rc=3.6094 Bohr: 1s-dz split-valence wave
    #     l=1, rc=6.4219 Bohr: p-type Gaussian polarization
    #   Number of RI-basis functions 0

Reference energy: -12.490162  # eV

Spin-polarized calculation.
Magnetic moment: 1.000000

Convergence criteria:
 Maximum [total energy] change in last 3 cyles: 0.0005 eV / valence electron
 Maximum integral of absolute [dens]ity change: 0.0001 electrons / valence electron
 Maximum integral of absolute [eigenst]ate change: 4e-08 eV^2 / valence electron
 Maximum number of scf [iter]ations: 333
 (Square brackets indicate name in SCF output, whereas a 'c' in
 the SCF output indicates the quantity has converged.)

Symmetries present (total): 48

  ( 1  0  0)  ( 1  0  0)  ( 1  0  0)  ( 1  0  0)  ( 1  0  0)  ( 1  0  0)
  ( 0  1  0)  ( 0  1  0)  ( 0  0  1)  ( 0  0  1)  ( 0  0 -1)  ( 0  0 -1)
  ( 0  0  1)  ( 0  0 -1)  ( 0  1  0)  ( 0 -1  0)  ( 0  1  0)  ( 0 -1  0)

  ( 1  0  0)  ( 1  0  0)  ( 0  1  0)  ( 0  1  0)  ( 0  1  0)  ( 0  1  0)
  ( 0 -1  0)  ( 0 -1  0)  ( 1  0  0)  ( 1  0  0)  ( 0  0  1)  ( 0  0  1)
  ( 0  0  1)  ( 0  0 -1)  ( 0  0  1)  ( 0  0 -1)  ( 1  0  0)  (-1  0  0)

  ( 0  1  0)  ( 0  1  0)  ( 0  1  0)  ( 0  1  0)  ( 0  0  1)  ( 0  0  1)
  ( 0  0 -1)  ( 0  0 -1)  (-1  0  0)  (-1  0  0)  ( 1  0  0)  ( 1  0  0)
  ( 1  0  0)  (-1  0  0)  ( 0  0  1)  ( 0  0 -1)  ( 0  1  0)  ( 0 -1  0)

  ( 0  0  1)  ( 0  0  1)  ( 0  0  1)  ( 0  0  1)  ( 0  0  1)  ( 0  0  1)
  ( 0  1  0)  ( 0  1  0)  ( 0 -1  0)  ( 0 -1  0)  (-1  0  0)  (-1  0  0)
  ( 1  0  0)  (-1  0  0)  ( 1  0  0)  (-1  0  0)  ( 0  1  0)  ( 0 -1  0)

  ( 0  0 -1)  ( 0  0 -1)  ( 0  0 -1)  ( 0  0 -1)  ( 0  0 -1)  ( 0  0 -1)
  ( 1  0  0)  ( 1  0  0)  ( 0  1  0)  ( 0  1  0)  ( 0 -1  0)  ( 0 -1  0)
  ( 0  1  0)  ( 0 -1  0)  ( 1  0  0)  (-1  0  0)  ( 1  0  0)  (-1  0  0)

  ( 0  0 -1)  ( 0  0 -1)  ( 0 -1  0)  ( 0 -1  0)  ( 0 -1  0)  ( 0 -1  0)
  (-1  0  0)  (-1  0  0)  ( 1  0  0)  ( 1  0  0)  ( 0  0  1)  ( 0  0  1)
  ( 0  1  0)  ( 0 -1  0)  ( 0  0  1)  ( 0  0 -1)  ( 1  0  0)  (-1  0  0)

  ( 0 -1  0)  ( 0 -1  0)  ( 0 -1  0)  ( 0 -1  0)  (-1  0  0)  (-1  0  0)
  ( 0  0 -1)  ( 0  0 -1)  (-1  0  0)  (-1  0  0)  ( 0  1  0)  ( 0  1  0)
  ( 1  0  0)  (-1  0  0)  ( 0  0  1)  ( 0  0 -1)  ( 0  0  1)  ( 0  0 -1)

  (-1  0  0)  (-1  0  0)  (-1  0  0)  (-1  0  0)  (-1  0  0)  (-1  0  0)
  ( 0  0  1)  ( 0  0  1)  ( 0  0 -1)  ( 0  0 -1)  ( 0 -1  0)  ( 0 -1  0)
  ( 0  1  0)  ( 0 -1  0)  ( 0  1  0)  ( 0 -1  0)  ( 0  0  1)  ( 0  0 -1)

1 k-point (Gamma)
1 k-point in the irreducible part of the Brillouin zone
       k-points in crystal coordinates                weights
   0:     0.00000000    0.00000000    0.00000000          1/1

Wave functions: LCAO
  Diagonalizer: Serial LAPACK
  Atomic Correction: dense with blas
  Data-type: float
 

Occupation numbers: # Zero width 

Eigensolver
   LCAO using direct dense diagonalizer 

Densities:
  Coarse grid: 40*40*40 grid
  Fine grid: 80*80*80 grid
  Total Charge: 0.000000 

Density mixing:
  Method: difference
  Backend: pulay
  Linear mixing parameter: 0.25
  old densities: 3
  Damping of long wavelength oscillations: 1  # (no daming) 

Hamiltonian:
  XC and Coulomb potentials evaluated on a 80*80*80 grid
  Using the PBE Exchange-Correlation functional
  Interpolation: tri-quintic (5. degree polynomial)
  Poisson solver: FastPoissonSolver using
    Stencil: 6*3+1=19 point O(h^6) finite-difference Laplacian
    FFT axes: []
    FST axes: [np.int64(0), np.int64(1), np.int64(2)]
 

XC parameters: PBE with 2 nearest neighbor stencil

Memory estimate:
  Process memory now: 658.02 MiB
  Calculator: 34.04 MiB
    Density: 21.18 MiB
      Arrays: 16.40 MiB
      Localized functions: 0.25 MiB
      Mixer: 4.53 MiB
    Hamiltonian: 12.21 MiB
      Arrays: 12.19 MiB
      XC: 0.00 MiB
      Poisson: 0.00 MiB
      vbar: 0.02 MiB
    Wavefunctions: 0.66 MiB
      C [qnM]: 0.00 MiB
      S, T [2 x qmm]: 0.00 MiB
      P [aqMi]: 0.00 MiB
      BasisFunctions: 0.65 MiB
      Eigensolver: 0.00 MiB

Total number of cores used: 1

Number of atoms: 1
Number of atomic orbitals: 5
Number of bands in calculation: 1
Number of valence electrons: 1
Bands to converge: occupied

... initialized

Initializing position-dependent things.

Density initialized from atomic densities
      .-------------------.  
     /|                   |  
    / |                   |  
   /  |                   |  
  /   |                   |  
 *    |                   |  
 |    |                   |  
 |    |       H           |  
 |    |                   |  
 |    |                   |  
 |    .-------------------.  
 |   /                   /   
 |  /                   /    
 | /                   /     
 |/                   /      
 *-------------------*       

Positions:
   0 H      4.000000    4.000000    4.000000    ( 0.0000,  0.0000,  1.0000)

Unit cell:
           periodic     x           y           z      points  spacing
  1. axis:    no     8.000000    0.000000    0.000000    40     0.2000
  2. axis:    no     0.000000    8.000000    0.000000    40     0.2000
  3. axis:    no     0.000000    0.000000    8.000000    40     0.2000

  Lengths:   8.000000   8.000000   8.000000
  Angles:   90.000000  90.000000  90.000000

Effective grid spacing dv^(1/3) = 0.2000

     iter     time        total  log10-change:  magmom
                         energy   eigst   dens
iter:   1 15:27:26    -1.036447        c          +1.0000
iter:   2 15:27:26     1.337965        c -1.30    +1.0000
iter:   3 15:27:26    -1.025650        c -1.41    +1.0000
iter:   4 15:27:26    -1.019601        c -1.97    +1.0000
iter:   5 15:27:26    -0.288030        c -2.18    +1.0000
iter:   6 15:27:26    -1.017752        c -1.95    +1.0000
iter:   7 15:27:26    -1.024606        c -4.02c   +1.0000
iter:   8 15:27:27    -1.033918        c -4.48c   +1.0000
iter:   9 15:27:27    -1.030005        c -4.66c   +1.0000
iter:  10 15:27:27    -1.033714        c -4.20c   +1.0000
iter:  11 15:27:27    -1.031127        c -5.85c   +1.0000
iter:  12 15:27:27    -1.031205        c -4.64c   +1.0000
iter:  13 15:27:27    -1.030619        c -4.39c   +1.0000
iter:  14 15:27:27    -1.033513        c -4.35c   +1.0000
iter:  15 15:27:28    -1.033771        c -6.34c   +1.0000
iter:  16 15:27:28    -1.034602        c -6.23c   +1.0000
iter:  17 15:27:28    -1.034339        c -5.57c   +1.0000
iter:  18 15:27:28    -1.034613c       c -5.23c   +1.0000

Converged after 18 iterations.

Dipole moment: (-0.000000, -0.000000, 0.000000) |e|*Ang

Total magnetic moment: (0.000000, 0.000000, 1.000000)
Local magnetic moments:
   0 H  ( 0.000000,  0.000000,  0.265021)

Energy contributions relative to reference atoms: (reference = -12.490162)

Kinetic:         +1.579872
Potential:       -0.937199
External:        +0.000000
XC:              -1.666066
Entropy (-ST):   +0.000000
Local:           -0.011220
SIC:             +0.000000
--------------------------
Free energy:     -1.034613
Extrapolated:    -1.034613

Spin contamination: 0.000000 electrons
                   Up                     Down
 Band  Eigenvalues  Occupancy  Eigenvalues  Occupancy
    0     -7.40014    1.00000     20.41462    0.00000

Fermi level: 6.50724

Could not find a gap
Timing:                              incl.     excl.
-----------------------------------------------------------
Basic WFS set positions:             0.000     0.000   0.0% |
Basis functions set positions:       0.000     0.000   0.0% |
LCAO WFS Initialize:                 0.114     0.003   0.1% |
 Hamiltonian:                        0.111     0.000   0.0% |
  Atomic:                            0.007     0.000   0.0% |
   XC Correction:                    0.007     0.007   0.3% |
  Calculate atomic Hamiltonians:     0.000     0.000   0.0% |
  Communicate:                       0.000     0.000   0.0% |
  Hartree integrate/restrict:        0.003     0.003   0.1% |
  Initialize Hamiltonian:            0.000     0.000   0.0% |
  Poisson:                           0.017     0.001   0.1% |
   Communicate from 1D:              0.002     0.002   0.1% |
   Communicate from 2D:              0.002     0.002   0.1% |
   Communicate to 1D:                0.002     0.002   0.1% |
   Communicate to 2D:                0.002     0.002   0.1% |
   FFT 1D:                           0.002     0.002   0.1% |
   FFT 2D:                           0.005     0.005   0.2% |
  XC 3D grid:                        0.084     0.084   3.2% ||
  vbar:                              0.000     0.000   0.0% |
P tci:                               0.000     0.000   0.0% |
SCF-cycle:                           2.322     0.005   0.2% |
 Density:                            0.422     0.000   0.0% |
  Atomic density matrices:           0.005     0.005   0.2% |
  Mix:                               0.082     0.082   3.2% ||
  Multipole moments:                 0.000     0.000   0.0% |
  Normalize:                         0.001     0.001   0.0% |
  Pseudo density:                    0.334     0.001   0.0% |
   Calculate density matrix:         0.000     0.000   0.0% |
   Construct density:                0.012     0.012   0.5% |
   Symmetrize density:               0.320     0.320  12.4% |----|
 Hamiltonian:                        1.879     0.002   0.1% |
  Atomic:                            0.114     0.002   0.1% |
   XC Correction:                    0.112     0.112   4.4% |-|
  Calculate atomic Hamiltonians:     0.002     0.002   0.1% |
  Communicate:                       0.000     0.000   0.0% |
  Hartree integrate/restrict:        0.039     0.039   1.5% ||
  Poisson:                           0.288     0.016   0.6% |
   Communicate from 1D:              0.034     0.034   1.3% ||
   Communicate from 2D:              0.034     0.034   1.3% ||
   Communicate to 1D:                0.037     0.037   1.5% ||
   Communicate to 2D:                0.035     0.035   1.3% ||
   FFT 1D:                           0.038     0.038   1.5% ||
   FFT 2D:                           0.094     0.094   3.7% ||
  XC 3D grid:                        1.431     1.431  55.5% |---------------------|
  vbar:                              0.003     0.003   0.1% |
 LCAO eigensolver:                   0.016     0.000   0.0% |
  Calculate projections:             0.000     0.000   0.0% |
  DenseAtomicCorrection:             0.001     0.001   0.0% |
  Distribute overlap matrix:         0.000     0.000   0.0% |
  Orbital Layouts:                   0.001     0.001   0.0% |
  Potential matrix:                  0.014     0.014   0.5% |
ST tci:                              0.000     0.000   0.0% |
Set symmetry:                        0.002     0.002   0.1% |
TCI: Evaluate splines:               0.004     0.004   0.2% |
mktci:                               0.000     0.000   0.0% |
Other:                               0.132     0.132   5.1% |-|
-----------------------------------------------------------
Total:                                         2.576 100.0%

Memory usage: 658.02 MiB
Date: Tue Feb  4 15:27:28 2025
