
  ___ ___ ___ _ _ _  
 |   |   |_  | | | | 
 | | | | | . | | | | 
 |__ |  _|___|_____|  25.1.0
 |___|_|             

User:   zoe@Zoes-MacBook-Air.local
Date:   Tue Feb  4 15:27:47 2025
Arch:   arm64
Pid:    79289
CWD:    /Users/zoe/Documents/Python/TIF320_Computitional_molecular_physics
Python: 3.12.2
gpaw:   /opt/anaconda3/envs/tif320env/lib/python3.12/site-packages/gpaw
_gpaw:  /opt/anaconda3/envs/tif320env/lib/python3.12/site-packages/
        _gpaw.cpython-312-darwin.so
ase:    /opt/anaconda3/envs/tif320env/lib/python3.12/site-packages/ase (version 3.24.0)
numpy:  /opt/anaconda3/envs/tif320env/lib/python3.12/site-packages/numpy (version 2.0.1)
scipy:  /opt/anaconda3/envs/tif320env/lib/python3.12/site-packages/scipy (version 1.15.1)
libxc:  7.0.0
units:  Angstrom and eV
cores: 1
OpenMP: False
OMP_NUM_THREADS: 1

Input parameters:
  h: 0.18
  mode: fd

System changes: positions, numbers, cell, pbc, initial_charges, initial_magmoms 

Initialize ...

species:
  O:
    name: Oxygen
    id: 9b9d51c344dea68c822856295a461509
    Z: 8.0
    valence: 6
    core: 2
    charge: 0.0
    file: /opt/anaconda3/envs/tif320env/gpaw-setups/gpaw-setups-24.11.0/O.LDA.gz
    compensation charges: {type: gauss,
                           rc: 0.21,
                           lmax: 2}
    cutoffs: {filter: 1.17,
              core: 0.83}
    projectors:
      #              energy  rcut
      - 2s(2.00)   -23.752   0.688
      - 2p(4.00)    -9.195   0.598
      -  s           3.459   0.688
      -  p          18.016   0.598
      -  d           0.000   0.619
  
    # Using partial waves for O as LCAO basis

Reference energy: -2027.908068  # eV

Spin-polarized calculation.
Magnetic moment: 2.000000

Convergence criteria:
 Maximum [total energy] change in last 3 cyles: 0.0005 eV / valence electron
 Maximum integral of absolute [dens]ity change: 0.0001 electrons / valence electron
 Maximum integral of absolute [eigenst]ate change: 4e-08 eV^2 / valence electron
 Maximum number of scf [iter]ations: 333
 (Square brackets indicate name in SCF output, whereas a 'c' in
 the SCF output indicates the quantity has converged.)

Symmetries present (total): 48

  ( 1  0  0)  ( 1  0  0)  ( 1  0  0)  ( 1  0  0)  ( 1  0  0)  ( 1  0  0)
  ( 0  1  0)  ( 0  1  0)  ( 0  0  1)  ( 0  0  1)  ( 0  0 -1)  ( 0  0 -1)
  ( 0  0  1)  ( 0  0 -1)  ( 0  1  0)  ( 0 -1  0)  ( 0  1  0)  ( 0 -1  0)

  ( 1  0  0)  ( 1  0  0)  ( 0  1  0)  ( 0  1  0)  ( 0  1  0)  ( 0  1  0)
  ( 0 -1  0)  ( 0 -1  0)  ( 1  0  0)  ( 1  0  0)  ( 0  0  1)  ( 0  0  1)
  ( 0  0  1)  ( 0  0 -1)  ( 0  0  1)  ( 0  0 -1)  ( 1  0  0)  (-1  0  0)

  ( 0  1  0)  ( 0  1  0)  ( 0  1  0)  ( 0  1  0)  ( 0  0  1)  ( 0  0  1)
  ( 0  0 -1)  ( 0  0 -1)  (-1  0  0)  (-1  0  0)  ( 1  0  0)  ( 1  0  0)
  ( 1  0  0)  (-1  0  0)  ( 0  0  1)  ( 0  0 -1)  ( 0  1  0)  ( 0 -1  0)

  ( 0  0  1)  ( 0  0  1)  ( 0  0  1)  ( 0  0  1)  ( 0  0  1)  ( 0  0  1)
  ( 0  1  0)  ( 0  1  0)  ( 0 -1  0)  ( 0 -1  0)  (-1  0  0)  (-1  0  0)
  ( 1  0  0)  (-1  0  0)  ( 1  0  0)  (-1  0  0)  ( 0  1  0)  ( 0 -1  0)

  ( 0  0 -1)  ( 0  0 -1)  ( 0  0 -1)  ( 0  0 -1)  ( 0  0 -1)  ( 0  0 -1)
  ( 1  0  0)  ( 1  0  0)  ( 0  1  0)  ( 0  1  0)  ( 0 -1  0)  ( 0 -1  0)
  ( 0  1  0)  ( 0 -1  0)  ( 1  0  0)  (-1  0  0)  ( 1  0  0)  (-1  0  0)

  ( 0  0 -1)  ( 0  0 -1)  ( 0 -1  0)  ( 0 -1  0)  ( 0 -1  0)  ( 0 -1  0)
  (-1  0  0)  (-1  0  0)  ( 1  0  0)  ( 1  0  0)  ( 0  0  1)  ( 0  0  1)
  ( 0  1  0)  ( 0 -1  0)  ( 0  0  1)  ( 0  0 -1)  ( 1  0  0)  (-1  0  0)

  ( 0 -1  0)  ( 0 -1  0)  ( 0 -1  0)  ( 0 -1  0)  (-1  0  0)  (-1  0  0)
  ( 0  0 -1)  ( 0  0 -1)  (-1  0  0)  (-1  0  0)  ( 0  1  0)  ( 0  1  0)
  ( 1  0  0)  (-1  0  0)  ( 0  0  1)  ( 0  0 -1)  ( 0  0  1)  ( 0  0 -1)

  (-1  0  0)  (-1  0  0)  (-1  0  0)  (-1  0  0)  (-1  0  0)  (-1  0  0)
  ( 0  0  1)  ( 0  0  1)  ( 0  0 -1)  ( 0  0 -1)  ( 0 -1  0)  ( 0 -1  0)
  ( 0  1  0)  ( 0 -1  0)  ( 0  1  0)  ( 0 -1  0)  ( 0  0  1)  ( 0  0 -1)

1 k-point (Gamma)
1 k-point in the irreducible part of the Brillouin zone
       k-points in crystal coordinates                weights
   0:     0.00000000    0.00000000    0.00000000          1/1

Wave functions: Uniform real-space grid
  Kinetic energy operator: 6*3+1=19 point O(h^6) finite-difference Laplacian
  ScaLapack parameters: grid=1x1, blocksize=None
  Wavefunction extrapolation:
    Improved wavefunction reuse through dual PAW basis 

Occupation numbers: # Zero width 

Eigensolver
   Davidson(niter=2) 

Densities:
  Coarse grid: 44*44*44 grid
  Fine grid: 88*88*88 grid
  Total Charge: 0.000000 

Density mixing:
  Method: difference
  Backend: pulay
  Linear mixing parameter: 0.25
  old densities: 3
  Damping of long wavelength oscillations: 1  # (no daming) 

Hamiltonian:
  XC and Coulomb potentials evaluated on a 88*88*88 grid
  Using the LDA Exchange-Correlation functional
  Interpolation: tri-quintic (5. degree polynomial)
  Poisson solver: FastPoissonSolver using
    Stencil: 6*3+1=19 point O(h^6) finite-difference Laplacian
    FFT axes: []
    FST axes: [np.int64(0), np.int64(1), np.int64(2)]
 

Memory estimate:
  Process memory now: 856.66 MiB
  Calculator: 55.76 MiB
    Density: 28.98 MiB
      Arrays: 21.92 MiB
      Localized functions: 1.00 MiB
      Mixer: 6.07 MiB
    Hamiltonian: 16.35 MiB
      Arrays: 16.29 MiB
      XC: 0.00 MiB
      Poisson: 0.00 MiB
      vbar: 0.07 MiB
    Wavefunctions: 10.42 MiB
      Arrays psit_nG: 4.85 MiB
      Eigensolver: 5.46 MiB
      Projections: 0.00 MiB
      Projectors: 0.11 MiB

Total number of cores used: 1

Number of atoms: 1
Number of atomic orbitals: 4
Number of bands in calculation: 4
Number of valence electrons: 6
Bands to converge: occupied

... initialized

Initializing position-dependent things.

Density initialized from atomic densities
Creating initial wave functions:
  4 bands from LCAO basis set

      .-------------------.  
     /|                   |  
    / |                   |  
   /  |                   |  
  /   |                   |  
 *    |                   |  
 |    |                   |  
 |    |       O           |  
 |    |                   |  
 |    |                   |  
 |    .-------------------.  
 |   /                   /   
 |  /                   /    
 | /                   /     
 |/                   /      
 *-------------------*       

Positions:
   0 O      4.000000    4.000000    4.000000    ( 0.0000,  0.0000,  2.0000)

Unit cell:
           periodic     x           y           z      points  spacing
  1. axis:    no     8.000000    0.000000    0.000000    44     0.1818
  2. axis:    no     0.000000    8.000000    0.000000    44     0.1818
  3. axis:    no     0.000000    0.000000    8.000000    44     0.1818

  Lengths:   8.000000   8.000000   8.000000
  Angles:   90.000000  90.000000  90.000000

Effective grid spacing dv^(1/3) = 0.1818

     iter     time        total  log10-change:  magmom
                         energy   eigst   dens
iter:   1 15:27:47    -1.757581                   +1.9998
iter:   2 15:27:47    -1.766159   -0.58  -2.00    +1.9999
iter:   3 15:27:47    -1.767506   -0.59  -2.15    +2.0000
iter:   4 15:27:47    -1.767648c  -1.80  -2.26    +2.0000
iter:   5 15:27:48    -1.775478   -1.47  -2.23    +2.0000
iter:   6 15:27:48    -1.769650   -1.82  -1.85    +2.0000
iter:   7 15:27:48    -1.770105   -1.45  -2.01    +2.0000
iter:   8 15:27:48    -1.766338   -1.24  -2.10    +2.0000
iter:   9 15:27:48    -1.766498   -1.90  -3.05    +2.0000
iter:  10 15:27:49    -1.766540c  -3.01  -3.02    +2.0000
iter:  11 15:27:49    -1.766369c  -3.21  -2.97    +2.0000
iter:  12 15:27:49    -1.766483c  -3.79  -3.31    +2.0000
iter:  13 15:27:49    -1.766484c  -4.92  -4.12c   +2.0000
iter:  14 15:27:49    -1.766484c  -5.40  -4.59c   +2.0000
iter:  15 15:27:49    -1.766485c  -4.98  -4.35c   +2.0000
iter:  16 15:27:50    -1.766484c  -5.17  -4.00c   +2.0000
iter:  17 15:27:50    -1.766484c  -5.78  -4.95c   +2.0000
iter:  18 15:27:50    -1.766484c  -7.02  -5.09c   +2.0000
iter:  19 15:27:50    -1.766484c  -8.30c -5.31c   +2.0000

Converged after 19 iterations.

Dipole moment: (-0.000000, -0.000000, -0.000000) |e|*Ang

Total magnetic moment: (0.000000, 0.000000, 2.000000)
Local magnetic moments:
   0 O  ( 0.000000,  0.000000,  1.130503)

Energy contributions relative to reference atoms: (reference = -2027.908068)

Kinetic:         +4.392986
Potential:       -4.597989
External:        +0.000000
XC:              -2.020238
Entropy (-ST):   +0.000000
Local:           +0.458756
SIC:             +0.000000
--------------------------
Free energy:     -1.766484
Extrapolated:    -1.766484

Spin contamination: 0.000072 electrons
                   Up                     Down
 Band  Eigenvalues  Occupancy  Eigenvalues  Occupancy
    0    -24.89011    1.00000    -21.80167    1.00000
    1    -10.35605    1.00000     -7.40820    1.00000
    2    -10.35605    1.00000     -7.40820    0.00000
    3    -10.35605    1.00000     -7.40820    0.00000

Fermi level: -7.40820

Could not find a gap
Timing:                              incl.     excl.
-----------------------------------------------------------
Hamiltonian:                         0.088     0.000   0.0% |
 Atomic:                             0.004     0.000   0.0% |
  XC Correction:                     0.004     0.004   0.1% |
 Calculate atomic Hamiltonians:      0.000     0.000   0.0% |
 Communicate:                        0.000     0.000   0.0% |
 Hartree integrate/restrict:         0.003     0.003   0.1% |
 Initialize Hamiltonian:             0.000     0.000   0.0% |
 Poisson:                            0.029     0.001   0.0% |
  Communicate from 1D:               0.003     0.003   0.1% |
  Communicate from 2D:               0.003     0.003   0.1% |
  Communicate to 1D:                 0.003     0.003   0.1% |
  Communicate to 2D:                 0.003     0.003   0.1% |
  FFT 1D:                            0.005     0.005   0.1% |
  FFT 2D:                            0.011     0.011   0.3% |
 XC 3D grid:                         0.050     0.050   1.5% ||
 vbar:                               0.000     0.000   0.0% |
LCAO initialization:                 0.007     0.003   0.1% |
 LCAO eigensolver:                   0.002     0.000   0.0% |
  Calculate projections:             0.000     0.000   0.0% |
  DenseAtomicCorrection:             0.000     0.000   0.0% |
  Distribute overlap matrix:         0.000     0.000   0.0% |
  Orbital Layouts:                   0.000     0.000   0.0% |
  Potential matrix:                  0.002     0.002   0.0% |
 LCAO to grid:                       0.001     0.001   0.0% |
 Set positions (LCAO WFS):           0.001     0.000   0.0% |
  Basic WFS set positions:           0.000     0.000   0.0% |
  Basis functions set positions:     0.000     0.000   0.0% |
  P tci:                             0.000     0.000   0.0% |
  ST tci:                            0.000     0.000   0.0% |
  mktci:                             0.000     0.000   0.0% |
SCF-cycle:                           3.100     0.008   0.3% |
 Davidson:                           0.948     0.344  10.2% |---|
  Apply hamiltonian:                 0.103     0.103   3.0% ||
  Subspace diag:                     0.131     0.001   0.0% |
   calc_h_matrix:                    0.114     0.017   0.5% |
    Apply hamiltonian:               0.096     0.096   2.9% ||
   diagonalize:                      0.002     0.002   0.0% |
   rotate_psi:                       0.015     0.015   0.4% |
  calc. matrices:                    0.348     0.152   4.5% |-|
   Apply hamiltonian:                0.195     0.195   5.8% |-|
  diagonalize:                       0.003     0.003   0.1% |
  rotate_psi:                        0.020     0.020   0.6% |
 Density:                            0.576     0.000   0.0% |
  Atomic density matrices:           0.006     0.006   0.2% |
  Mix:                               0.111     0.111   3.3% ||
  Multipole moments:                 0.000     0.000   0.0% |
  Pseudo density:                    0.458     0.005   0.1% |
   Symmetrize density:               0.454     0.454  13.5% |----|
 Hamiltonian:                        1.566     0.003   0.1% |
  Atomic:                            0.077     0.002   0.1% |
   XC Correction:                    0.075     0.075   2.2% ||
  Calculate atomic Hamiltonians:     0.004     0.004   0.1% |
  Communicate:                       0.000     0.000   0.0% |
  Hartree integrate/restrict:        0.052     0.052   1.5% ||
  Poisson:                           0.482     0.018   0.5% |
   Communicate from 1D:              0.047     0.047   1.4% ||
   Communicate from 2D:              0.045     0.045   1.3% ||
   Communicate to 1D:                0.055     0.055   1.6% ||
   Communicate to 2D:                0.048     0.048   1.4% ||
   FFT 1D:                           0.080     0.080   2.4% ||
   FFT 2D:                           0.188     0.188   5.6% |-|
  XC 3D grid:                        0.943     0.943  28.0% |----------|
  vbar:                              0.005     0.005   0.2% |
 Orthonormalize:                     0.001     0.000   0.0% |
  calc_s_matrix:                     0.001     0.001   0.0% |
  inverse-cholesky:                  0.000     0.000   0.0% |
  projections:                       0.000     0.000   0.0% |
  rotate_psi_s:                      0.000     0.000   0.0% |
Set symmetry:                        0.002     0.002   0.1% |
Other:                               0.173     0.173   5.1% |-|
-----------------------------------------------------------
Total:                                         3.370 100.0%

Memory usage: 856.66 MiB
Date: Tue Feb  4 15:27:50 2025
