
  ___ ___ ___ _ _ _  
 |   |   |_  | | | | 
 | | | | | . | | | | 
 |__ |  _|___|_____|  25.1.0
 |___|_|             

User:   zoe@Zoes-MacBook-Air.local
Date:   Tue Feb  4 15:27:37 2025
Arch:   arm64
Pid:    79289
CWD:    /Users/zoe/Documents/Python/TIF320_Computitional_molecular_physics
Python: 3.12.2
gpaw:   /opt/anaconda3/envs/tif320env/lib/python3.12/site-packages/gpaw
_gpaw:  /opt/anaconda3/envs/tif320env/lib/python3.12/site-packages/
        _gpaw.cpython-312-darwin.so
ase:    /opt/anaconda3/envs/tif320env/lib/python3.12/site-packages/ase (version 3.24.0)
numpy:  /opt/anaconda3/envs/tif320env/lib/python3.12/site-packages/numpy (version 2.0.1)
scipy:  /opt/anaconda3/envs/tif320env/lib/python3.12/site-packages/scipy (version 1.15.1)
libxc:  7.0.0
units:  Angstrom and eV
cores: 1
OpenMP: False
OMP_NUM_THREADS: 1

Input parameters:
  h: 0.16
  mode: fd

System changes: positions, numbers, cell, pbc, initial_charges, initial_magmoms 

Initialize ...

species:
  O:
    name: Oxygen
    id: 9b9d51c344dea68c822856295a461509
    Z: 8.0
    valence: 6
    core: 2
    charge: 0.0
    file: /opt/anaconda3/envs/tif320env/gpaw-setups/gpaw-setups-24.11.0/O.LDA.gz
    compensation charges: {type: gauss,
                           rc: 0.21,
                           lmax: 2}
    cutoffs: {filter: 1.17,
              core: 0.83}
    projectors:
      #              energy  rcut
      - 2s(2.00)   -23.752   0.688
      - 2p(4.00)    -9.195   0.598
      -  s           3.459   0.688
      -  p          18.016   0.598
      -  d           0.000   0.619
  
    # Using partial waves for O as LCAO basis

Reference energy: -2027.908068  # eV

Spin-polarized calculation.
Magnetic moment: 2.000000

Convergence criteria:
 Maximum [total energy] change in last 3 cyles: 0.0005 eV / valence electron
 Maximum integral of absolute [dens]ity change: 0.0001 electrons / valence electron
 Maximum integral of absolute [eigenst]ate change: 4e-08 eV^2 / valence electron
 Maximum number of scf [iter]ations: 333
 (Square brackets indicate name in SCF output, whereas a 'c' in
 the SCF output indicates the quantity has converged.)

Symmetries present (total): 48

  ( 1  0  0)  ( 1  0  0)  ( 1  0  0)  ( 1  0  0)  ( 1  0  0)  ( 1  0  0)
  ( 0  1  0)  ( 0  1  0)  ( 0  0  1)  ( 0  0  1)  ( 0  0 -1)  ( 0  0 -1)
  ( 0  0  1)  ( 0  0 -1)  ( 0  1  0)  ( 0 -1  0)  ( 0  1  0)  ( 0 -1  0)

  ( 1  0  0)  ( 1  0  0)  ( 0  1  0)  ( 0  1  0)  ( 0  1  0)  ( 0  1  0)
  ( 0 -1  0)  ( 0 -1  0)  ( 1  0  0)  ( 1  0  0)  ( 0  0  1)  ( 0  0  1)
  ( 0  0  1)  ( 0  0 -1)  ( 0  0  1)  ( 0  0 -1)  ( 1  0  0)  (-1  0  0)

  ( 0  1  0)  ( 0  1  0)  ( 0  1  0)  ( 0  1  0)  ( 0  0  1)  ( 0  0  1)
  ( 0  0 -1)  ( 0  0 -1)  (-1  0  0)  (-1  0  0)  ( 1  0  0)  ( 1  0  0)
  ( 1  0  0)  (-1  0  0)  ( 0  0  1)  ( 0  0 -1)  ( 0  1  0)  ( 0 -1  0)

  ( 0  0  1)  ( 0  0  1)  ( 0  0  1)  ( 0  0  1)  ( 0  0  1)  ( 0  0  1)
  ( 0  1  0)  ( 0  1  0)  ( 0 -1  0)  ( 0 -1  0)  (-1  0  0)  (-1  0  0)
  ( 1  0  0)  (-1  0  0)  ( 1  0  0)  (-1  0  0)  ( 0  1  0)  ( 0 -1  0)

  ( 0  0 -1)  ( 0  0 -1)  ( 0  0 -1)  ( 0  0 -1)  ( 0  0 -1)  ( 0  0 -1)
  ( 1  0  0)  ( 1  0  0)  ( 0  1  0)  ( 0  1  0)  ( 0 -1  0)  ( 0 -1  0)
  ( 0  1  0)  ( 0 -1  0)  ( 1  0  0)  (-1  0  0)  ( 1  0  0)  (-1  0  0)

  ( 0  0 -1)  ( 0  0 -1)  ( 0 -1  0)  ( 0 -1  0)  ( 0 -1  0)  ( 0 -1  0)
  (-1  0  0)  (-1  0  0)  ( 1  0  0)  ( 1  0  0)  ( 0  0  1)  ( 0  0  1)
  ( 0  1  0)  ( 0 -1  0)  ( 0  0  1)  ( 0  0 -1)  ( 1  0  0)  (-1  0  0)

  ( 0 -1  0)  ( 0 -1  0)  ( 0 -1  0)  ( 0 -1  0)  (-1  0  0)  (-1  0  0)
  ( 0  0 -1)  ( 0  0 -1)  (-1  0  0)  (-1  0  0)  ( 0  1  0)  ( 0  1  0)
  ( 1  0  0)  (-1  0  0)  ( 0  0  1)  ( 0  0 -1)  ( 0  0  1)  ( 0  0 -1)

  (-1  0  0)  (-1  0  0)  (-1  0  0)  (-1  0  0)  (-1  0  0)  (-1  0  0)
  ( 0  0  1)  ( 0  0  1)  ( 0  0 -1)  ( 0  0 -1)  ( 0 -1  0)  ( 0 -1  0)
  ( 0  1  0)  ( 0 -1  0)  ( 0  1  0)  ( 0 -1  0)  ( 0  0  1)  ( 0  0 -1)

1 k-point (Gamma)
1 k-point in the irreducible part of the Brillouin zone
       k-points in crystal coordinates                weights
   0:     0.00000000    0.00000000    0.00000000          1/1

Wave functions: Uniform real-space grid
  Kinetic energy operator: 6*3+1=19 point O(h^6) finite-difference Laplacian
  ScaLapack parameters: grid=1x1, blocksize=None
  Wavefunction extrapolation:
    Improved wavefunction reuse through dual PAW basis 

Occupation numbers: # Zero width 

Eigensolver
   Davidson(niter=2) 

Densities:
  Coarse grid: 52*52*52 grid
  Fine grid: 104*104*104 grid
  Total Charge: 0.000000 

Density mixing:
  Method: difference
  Backend: pulay
  Linear mixing parameter: 0.25
  old densities: 3
  Damping of long wavelength oscillations: 1  # (no daming) 

Hamiltonian:
  XC and Coulomb potentials evaluated on a 104*104*104 grid
  Using the LDA Exchange-Correlation functional
  Interpolation: tri-quintic (5. degree polynomial)
  Poisson solver: FastPoissonSolver using
    Stencil: 6*3+1=19 point O(h^6) finite-difference Laplacian
    FFT axes: []
    FST axes: [np.int64(0), np.int64(1), np.int64(2)]
 

Memory estimate:
  Process memory now: 856.66 MiB
  Calculator: 92.69 MiB
    Density: 48.15 MiB
      Arrays: 36.38 MiB
      Localized functions: 1.65 MiB
      Mixer: 10.12 MiB
    Hamiltonian: 27.15 MiB
      Arrays: 27.03 MiB
      XC: 0.00 MiB
      Poisson: 0.00 MiB
      vbar: 0.11 MiB
    Wavefunctions: 17.39 MiB
      Arrays psit_nG: 8.10 MiB
      Eigensolver: 9.11 MiB
      Projections: 0.00 MiB
      Projectors: 0.18 MiB

Total number of cores used: 1

Number of atoms: 1
Number of atomic orbitals: 4
Number of bands in calculation: 4
Number of valence electrons: 6
Bands to converge: occupied

... initialized

Initializing position-dependent things.

Density initialized from atomic densities
Creating initial wave functions:
  4 bands from LCAO basis set

      .-------------------.  
     /|                   |  
    / |                   |  
   /  |                   |  
  /   |                   |  
 *    |                   |  
 |    |                   |  
 |    |       O           |  
 |    |                   |  
 |    |                   |  
 |    .-------------------.  
 |   /                   /   
 |  /                   /    
 | /                   /     
 |/                   /      
 *-------------------*       

Positions:
   0 O      4.000000    4.000000    4.000000    ( 0.0000,  0.0000,  2.0000)

Unit cell:
           periodic     x           y           z      points  spacing
  1. axis:    no     8.000000    0.000000    0.000000    52     0.1538
  2. axis:    no     0.000000    8.000000    0.000000    52     0.1538
  3. axis:    no     0.000000    0.000000    8.000000    52     0.1538

  Lengths:   8.000000   8.000000   8.000000
  Angles:   90.000000  90.000000  90.000000

Effective grid spacing dv^(1/3) = 0.1538

     iter     time        total  log10-change:  magmom
                         energy   eigst   dens
iter:   1 15:27:37    -1.702927                   +1.9998
iter:   2 15:27:38    -1.714277   -0.33  -2.08    +1.9999
iter:   3 15:27:38    -1.716528   -0.33  -2.21    +2.0000
iter:   4 15:27:38    -1.716091c  -1.48  -2.32    +2.0000
iter:   5 15:27:39    -1.718711c  -1.31  -2.58    +2.0000
iter:   6 15:27:39    -1.716072c  -1.50  -2.15    +2.0000
iter:   7 15:27:39    -1.714761   -1.60  -3.14    +2.0000
iter:   8 15:27:39    -1.716200c  -2.41  -3.32    +2.0000
iter:   9 15:27:40    -1.716209c  -3.48  -3.82    +2.0000
iter:  10 15:27:40    -1.716211c  -3.80  -3.96    +2.0000
iter:  11 15:27:40    -1.716212c  -4.05  -4.39c   +2.0000
iter:  12 15:27:41    -1.716212c  -4.57  -4.46c   +2.0000
iter:  13 15:27:41    -1.716212c  -5.00  -4.08c   +2.0000
iter:  14 15:27:41    -1.716212c  -5.25  -4.66c   +2.0000
iter:  15 15:27:41    -1.716212c  -6.70  -4.93c   +2.0000
iter:  16 15:27:42    -1.716212c  -7.04  -5.33c   +2.0000
iter:  17 15:27:42    -1.716212c  -7.31  -5.26c   +2.0000
iter:  18 15:27:42    -1.716212c  -7.71c -5.43c   +2.0000

Converged after 18 iterations.

Dipole moment: (0.000000, -0.000000, -0.000000) |e|*Ang

Total magnetic moment: (0.000000, 0.000000, 2.000000)
Local magnetic moments:
   0 O  ( 0.000000,  0.000000,  1.129802)

Energy contributions relative to reference atoms: (reference = -2027.908068)

Kinetic:         +3.999648
Potential:       -4.044192
External:        +0.000000
XC:              -1.987152
Entropy (-ST):   +0.000000
Local:           +0.315484
SIC:             +0.000000
--------------------------
Free energy:     -1.716212
Extrapolated:    -1.716212

Spin contamination: 0.000072 electrons
                   Up                     Down
 Band  Eigenvalues  Occupancy  Eigenvalues  Occupancy
    0    -24.90865    1.00000    -21.82094    1.00000
    1    -10.35402    1.00000     -7.40712    1.00000
    2    -10.35402    1.00000     -7.40712    0.00000
    3    -10.35402    1.00000     -7.40712    0.00000

Fermi level: -7.40712

Could not find a gap
Timing:                              incl.     excl.
-----------------------------------------------------------
Hamiltonian:                         0.139     0.000   0.0% |
 Atomic:                             0.004     0.000   0.0% |
  XC Correction:                     0.004     0.004   0.1% |
 Calculate atomic Hamiltonians:      0.000     0.000   0.0% |
 Communicate:                        0.000     0.000   0.0% |
 Hartree integrate/restrict:         0.005     0.005   0.1% |
 Initialize Hamiltonian:             0.000     0.000   0.0% |
 Poisson:                            0.044     0.001   0.0% |
  Communicate from 1D:               0.004     0.004   0.1% |
  Communicate from 2D:               0.004     0.004   0.1% |
  Communicate to 1D:                 0.005     0.005   0.1% |
  Communicate to 2D:                 0.004     0.004   0.1% |
  FFT 1D:                            0.008     0.008   0.1% |
  FFT 2D:                            0.017     0.017   0.3% |
 XC 3D grid:                         0.084     0.084   1.6% ||
 vbar:                               0.001     0.001   0.0% |
LCAO initialization:                 0.009     0.003   0.1% |
 LCAO eigensolver:                   0.003     0.000   0.0% |
  Calculate projections:             0.000     0.000   0.0% |
  DenseAtomicCorrection:             0.000     0.000   0.0% |
  Distribute overlap matrix:         0.000     0.000   0.0% |
  Orbital Layouts:                   0.000     0.000   0.0% |
  Potential matrix:                  0.003     0.003   0.1% |
 LCAO to grid:                       0.002     0.002   0.0% |
 Set positions (LCAO WFS):           0.001     0.000   0.0% |
  Basic WFS set positions:           0.000     0.000   0.0% |
  Basis functions set positions:     0.000     0.000   0.0% |
  P tci:                             0.000     0.000   0.0% |
  ST tci:                            0.000     0.000   0.0% |
  mktci:                             0.000     0.000   0.0% |
SCF-cycle:                           4.784     0.012   0.2% |
 Davidson:                           1.473     0.519   9.9% |---|
  Apply hamiltonian:                 0.157     0.157   3.0% ||
  Subspace diag:                     0.215     0.001   0.0% |
   calc_h_matrix:                    0.188     0.036   0.7% |
    Apply hamiltonian:               0.152     0.152   2.9% ||
   diagonalize:                      0.002     0.002   0.0% |
   rotate_psi:                       0.025     0.025   0.5% |
  calc. matrices:                    0.521     0.215   4.1% |-|
   Apply hamiltonian:                0.305     0.305   5.8% |-|
  diagonalize:                       0.003     0.003   0.1% |
  rotate_psi:                        0.059     0.059   1.1% |
 Density:                            0.886     0.000   0.0% |
  Atomic density matrices:           0.006     0.006   0.1% |
  Mix:                               0.163     0.163   3.1% ||
  Multipole moments:                 0.000     0.000   0.0% |
  Pseudo density:                    0.717     0.006   0.1% |
   Symmetrize density:               0.710     0.710  13.6% |----|
 Hamiltonian:                        2.410     0.004   0.1% |
  Atomic:                            0.074     0.002   0.0% |
   XC Correction:                    0.072     0.072   1.4% ||
  Calculate atomic Hamiltonians:     0.005     0.005   0.1% |
  Communicate:                       0.000     0.000   0.0% |
  Hartree integrate/restrict:        0.076     0.076   1.5% ||
  Poisson:                           0.767     0.026   0.5% |
   Communicate from 1D:              0.071     0.071   1.4% ||
   Communicate from 2D:              0.078     0.078   1.5% ||
   Communicate to 1D:                0.086     0.086   1.6% ||
   Communicate to 2D:                0.077     0.077   1.5% ||
   FFT 1D:                           0.134     0.134   2.6% ||
   FFT 2D:                           0.296     0.296   5.7% |-|
  XC 3D grid:                        1.476     1.476  28.2% |----------|
  vbar:                              0.009     0.009   0.2% |
 Orthonormalize:                     0.003     0.000   0.0% |
  calc_s_matrix:                     0.002     0.002   0.0% |
  inverse-cholesky:                  0.000     0.000   0.0% |
  projections:                       0.000     0.000   0.0% |
  rotate_psi_s:                      0.001     0.001   0.0% |
Set symmetry:                        0.002     0.002   0.0% |
Other:                               0.293     0.293   5.6% |-|
-----------------------------------------------------------
Total:                                         5.226 100.0%

Memory usage: 856.66 MiB
Date: Tue Feb  4 15:27:42 2025
