
  ___ ___ ___ _ _ _  
 |   |   |_  | | | | 
 | | | | | . | | | | 
 |__ |  _|___|_____|  25.1.0
 |___|_|             

User:   zoe@Zoes-MacBook-Air.local
Date:   Tue Feb  4 15:28:16 2025
Arch:   arm64
Pid:    79289
CWD:    /Users/zoe/Documents/Python/TIF320_Computitional_molecular_physics
Python: 3.12.2
gpaw:   /opt/anaconda3/envs/tif320env/lib/python3.12/site-packages/gpaw
_gpaw:  /opt/anaconda3/envs/tif320env/lib/python3.12/site-packages/
        _gpaw.cpython-312-darwin.so
ase:    /opt/anaconda3/envs/tif320env/lib/python3.12/site-packages/ase (version 3.24.0)
numpy:  /opt/anaconda3/envs/tif320env/lib/python3.12/site-packages/numpy (version 2.0.1)
scipy:  /opt/anaconda3/envs/tif320env/lib/python3.12/site-packages/scipy (version 1.15.1)
libxc:  7.0.0
units:  Angstrom and eV
cores: 1
OpenMP: False
OMP_NUM_THREADS: 1

Input parameters:
  mode: {ecut: 350.0,
         name: pw}

System changes: positions, numbers, cell, pbc, initial_charges, initial_magmoms 

Initialize ...

species:
  O:
    name: Oxygen
    id: 9b9d51c344dea68c822856295a461509
    Z: 8.0
    valence: 6
    core: 2
    charge: 0.0
    file: /opt/anaconda3/envs/tif320env/gpaw-setups/gpaw-setups-24.11.0/O.LDA.gz
    compensation charges: {type: gauss,
                           rc: 0.21,
                           lmax: 2}
    cutoffs: {filter: 1.17,
              core: 0.83}
    projectors:
      #              energy  rcut
      - 2s(2.00)   -23.752   0.688
      - 2p(4.00)    -9.195   0.598
      -  s           3.459   0.688
      -  p          18.016   0.598
      -  d           0.000   0.619
  
    # Using partial waves for O as LCAO basis

Reference energy: -2027.908068  # eV

Spin-polarized calculation.
Magnetic moment: 2.000000

Convergence criteria:
 Maximum [total energy] change in last 3 cyles: 0.0005 eV / valence electron
 Maximum integral of absolute [dens]ity change: 0.0001 electrons / valence electron
 Maximum integral of absolute [eigenst]ate change: 4e-08 eV^2 / valence electron
 Maximum number of scf [iter]ations: 333
 (Square brackets indicate name in SCF output, whereas a 'c' in
 the SCF output indicates the quantity has converged.)

Symmetries present (total): 48

  ( 1  0  0)  ( 1  0  0)  ( 1  0  0)  ( 1  0  0)  ( 1  0  0)  ( 1  0  0)
  ( 0  1  0)  ( 0  1  0)  ( 0  0  1)  ( 0  0  1)  ( 0  0 -1)  ( 0  0 -1)
  ( 0  0  1)  ( 0  0 -1)  ( 0  1  0)  ( 0 -1  0)  ( 0  1  0)  ( 0 -1  0)

  ( 1  0  0)  ( 1  0  0)  ( 0  1  0)  ( 0  1  0)  ( 0  1  0)  ( 0  1  0)
  ( 0 -1  0)  ( 0 -1  0)  ( 1  0  0)  ( 1  0  0)  ( 0  0  1)  ( 0  0  1)
  ( 0  0  1)  ( 0  0 -1)  ( 0  0  1)  ( 0  0 -1)  ( 1  0  0)  (-1  0  0)

  ( 0  1  0)  ( 0  1  0)  ( 0  1  0)  ( 0  1  0)  ( 0  0  1)  ( 0  0  1)
  ( 0  0 -1)  ( 0  0 -1)  (-1  0  0)  (-1  0  0)  ( 1  0  0)  ( 1  0  0)
  ( 1  0  0)  (-1  0  0)  ( 0  0  1)  ( 0  0 -1)  ( 0  1  0)  ( 0 -1  0)

  ( 0  0  1)  ( 0  0  1)  ( 0  0  1)  ( 0  0  1)  ( 0  0  1)  ( 0  0  1)
  ( 0  1  0)  ( 0  1  0)  ( 0 -1  0)  ( 0 -1  0)  (-1  0  0)  (-1  0  0)
  ( 1  0  0)  (-1  0  0)  ( 1  0  0)  (-1  0  0)  ( 0  1  0)  ( 0 -1  0)

  ( 0  0 -1)  ( 0  0 -1)  ( 0  0 -1)  ( 0  0 -1)  ( 0  0 -1)  ( 0  0 -1)
  ( 1  0  0)  ( 1  0  0)  ( 0  1  0)  ( 0  1  0)  ( 0 -1  0)  ( 0 -1  0)
  ( 0  1  0)  ( 0 -1  0)  ( 1  0  0)  (-1  0  0)  ( 1  0  0)  (-1  0  0)

  ( 0  0 -1)  ( 0  0 -1)  ( 0 -1  0)  ( 0 -1  0)  ( 0 -1  0)  ( 0 -1  0)
  (-1  0  0)  (-1  0  0)  ( 1  0  0)  ( 1  0  0)  ( 0  0  1)  ( 0  0  1)
  ( 0  1  0)  ( 0 -1  0)  ( 0  0  1)  ( 0  0 -1)  ( 1  0  0)  (-1  0  0)

  ( 0 -1  0)  ( 0 -1  0)  ( 0 -1  0)  ( 0 -1  0)  (-1  0  0)  (-1  0  0)
  ( 0  0 -1)  ( 0  0 -1)  (-1  0  0)  (-1  0  0)  ( 0  1  0)  ( 0  1  0)
  ( 1  0  0)  (-1  0  0)  ( 0  0  1)  ( 0  0 -1)  ( 0  0  1)  ( 0  0 -1)

  (-1  0  0)  (-1  0  0)  (-1  0  0)  (-1  0  0)  (-1  0  0)  (-1  0  0)
  ( 0  0  1)  ( 0  0  1)  ( 0  0 -1)  ( 0  0 -1)  ( 0 -1  0)  ( 0 -1  0)
  ( 0  1  0)  ( 0 -1  0)  ( 0  1  0)  ( 0 -1  0)  ( 0  0  1)  ( 0  0 -1)

1 k-point (Gamma)
1 k-point in the irreducible part of the Brillouin zone
       k-points in crystal coordinates                weights
   0:     0.00000000    0.00000000    0.00000000          1/1

Wave functions: Plane wave expansion
  Cutoff energy: 350.000 eV
  Number of coefficients: 7521 (reduced to 3761)
  Pulay-stress correction: 0.000000 eV/Ang^3 (de/decut=0.000000)
  Using Numpy's FFT
  ScaLapack parameters: grid=1x1, blocksize=None
  Wavefunction extrapolation:
    Improved wavefunction reuse through dual PAW basis 

Occupation numbers: # Zero width 

Eigensolver
   Davidson(niter=2) 

Densities:
  Coarse grid: 35*35*35 grid
  Fine grid: 70*70*70 grid
  Total Charge: 0.000000 

Density mixing:
  Method: difference
  Backend: pulay
  Linear mixing parameter: 0.05
  old densities: 5
  Damping of long wavelength oscillations: 50 

Hamiltonian:
  XC and Coulomb potentials evaluated on a 70*70*70 grid
  Using the LDA Exchange-Correlation functional
  External potential:
    NoExternalPotential
 

Memory estimate:
  Process memory now: 856.66 MiB
  Calculator: 35.02 MiB
    Density: 24.08 MiB
      Arrays: 11.45 MiB
      Localized functions: 8.05 MiB
      Mixer: 4.58 MiB
    Hamiltonian: 8.67 MiB
      Arrays: 8.50 MiB
      XC: 0.00 MiB
      Poisson: 0.00 MiB
      vbar: 0.16 MiB
    Wavefunctions: 2.27 MiB
      Arrays psit_nG: 0.46 MiB
      Eigensolver: 0.52 MiB
      Projections: 0.00 MiB
      Projectors: 0.40 MiB
      PW-descriptor: 0.89 MiB

Total number of cores used: 1

Number of atoms: 1
Number of atomic orbitals: 4
Number of bands in calculation: 4
Number of valence electrons: 6
Bands to converge: occupied

... initialized

Initializing position-dependent things.

Density initialized from atomic densities
Creating initial wave functions:
  4 bands from LCAO basis set

      .-------------------.  
     /|                   |  
    / |                   |  
   /  |                   |  
  /   |                   |  
 *    |                   |  
 |    |                   |  
 |    |       O           |  
 |    |                   |  
 |    |                   |  
 |    .-------------------.  
 |   /                   /   
 |  /                   /    
 | /                   /     
 |/                   /      
 *-------------------*       

Positions:
   0 O      4.000000    4.000000    4.000000    ( 0.0000,  0.0000,  2.0000)

Unit cell:
           periodic     x           y           z      points  spacing
  1. axis:    no     8.000000    0.000000    0.000000    35     0.2286
  2. axis:    no     0.000000    8.000000    0.000000    35     0.2286
  3. axis:    no     0.000000    0.000000    8.000000    35     0.2286

  Lengths:   8.000000   8.000000   8.000000
  Angles:   90.000000  90.000000  90.000000

Effective grid spacing dv^(1/3) = 0.2286

     iter     time        total  log10-change:  magmom
                         energy   eigst   dens
iter:   1 15:28:16     2.091599                   +1.9999
iter:   2 15:28:16     2.097799   -1.90  -1.32    +2.0000
iter:   3 15:28:16     2.166604   -1.26  -1.35    +2.0000
iter:   4 15:28:16     2.160425   -2.30  -1.59    +2.0000
iter:   5 15:28:16     2.122464   -1.97  -1.54    +2.0000
iter:   6 15:28:16     2.170257   -2.14  -1.47    +2.0000
iter:   7 15:28:16     2.170922   -3.12  -1.98    +2.0000
iter:   8 15:28:16     2.168779c  -3.83  -2.00    +2.0000
iter:   9 15:28:16     2.173650   -2.56  -1.98    +2.0000
iter:  10 15:28:17     2.173499   -3.47  -2.72    +2.0000
iter:  11 15:28:17     2.173253c  -3.99  -2.61    +2.0000
iter:  12 15:28:17     2.173190c  -4.49  -2.53    +2.0000
iter:  13 15:28:17     2.173447c  -4.81  -2.49    +2.0000
iter:  14 15:28:17     2.173508c  -5.06  -2.62    +2.0000
iter:  15 15:28:17     2.173514c  -5.91  -2.71    +2.0000
iter:  16 15:28:17     2.173342c  -5.04  -2.70    +2.0000
iter:  17 15:28:17     2.173629c  -4.33  -2.58    +2.0000
iter:  18 15:28:17     2.173645c  -4.64  -3.21    +2.0000
iter:  19 15:28:17     2.173658c  -5.45  -3.84    +2.0000
iter:  20 15:28:17     2.173641c  -5.49  -3.92    +2.0000
iter:  21 15:28:18     2.173640c  -6.11  -3.68    +2.0000
iter:  22 15:28:18     2.173625c  -5.46  -3.87    +2.0000
iter:  23 15:28:18     2.173627c  -6.57  -3.34    +2.0000
iter:  24 15:28:18     2.173641c  -5.44  -3.30    +2.0000
iter:  25 15:28:18     2.173641c  -6.09  -4.43c   +2.0000
iter:  26 15:28:18     2.173641c  -6.97  -4.50c   +2.0000
iter:  27 15:28:18     2.173641c  -7.48c -4.88c   +2.0000

Converged after 27 iterations.

Dipole moment: (0.000000, 0.000000, 0.000000) |e|*Ang

Total magnetic moment: (0.000000, 0.000000, 2.000000)
Local magnetic moments:
   0 O  ( 0.000000,  0.000000,  1.097063)

Energy contributions relative to reference atoms: (reference = -2027.908068)

Kinetic:        -14.021964
Potential:      +16.563943
External:        +0.000000
XC:              -0.311014
Entropy (-ST):   +0.000000
Local:           -0.057324
SIC:             +0.000000
--------------------------
Free energy:     +2.173641
Extrapolated:    +2.173641

Spin contamination: 0.001230 electrons
                   Up                     Down
 Band  Eigenvalues  Occupancy  Eigenvalues  Occupancy
    0    -25.56214    1.00000    -22.46554    1.00000
    1    -10.03249    1.00000     -7.17269    1.00000
    2    -10.03246    1.00000     -7.17266    0.00000
    3    -10.03246    1.00000     -7.17266    0.00000

Fermi level: -7.17268

Could not find a gap
Timing:                              incl.     excl.
-----------------------------------------------------------
Hamiltonian:                         0.039     0.001   0.0% |
 Atomic:                             0.004     0.000   0.0% |
  XC Correction:                     0.004     0.004   0.2% |
 Calculate atomic Hamiltonians:      0.002     0.002   0.1% |
 Communicate:                        0.000     0.000   0.0% |
 Initialize Hamiltonian:             0.000     0.000   0.0% |
 Poisson:                            0.000     0.000   0.0% |
 XC 3D grid:                         0.031     0.031   1.3% ||
LCAO initialization:                 0.010     0.003   0.1% |
 LCAO eigensolver:                   0.001     0.000   0.0% |
  Calculate projections:             0.000     0.000   0.0% |
  DenseAtomicCorrection:             0.000     0.000   0.0% |
  Distribute overlap matrix:         0.000     0.000   0.0% |
  Orbital Layouts:                   0.000     0.000   0.0% |
  Potential matrix:                  0.001     0.001   0.0% |
 LCAO to grid:                       0.005     0.005   0.2% |
 Set positions (LCAO WFS):           0.001     0.000   0.0% |
  Basic WFS set positions:           0.000     0.000   0.0% |
  Basis functions set positions:     0.000     0.000   0.0% |
  P tci:                             0.000     0.000   0.0% |
  ST tci:                            0.000     0.000   0.0% |
  mktci:                             0.001     0.001   0.0% |
PWDescriptor:                        0.000     0.000   0.0% |
SCF-cycle:                           2.320     0.005   0.2% |
 Davidson:                           0.575     0.040   1.7% ||
  Apply H:                           0.122     0.121   5.0% |-|
   HMM T:                            0.001     0.001   0.0% |
  Subspace diag:                     0.140     0.001   0.0% |
   calc_h_matrix:                    0.135     0.005   0.2% |
    Apply H:                         0.130     0.129   5.3% |-|
     HMM T:                          0.001     0.001   0.0% |
   diagonalize:                      0.002     0.002   0.1% |
   rotate_psi:                       0.002     0.002   0.1% |
  calc. matrices:                    0.267     0.022   0.9% |
   Apply H:                          0.245     0.243  10.0% |---|
    HMM T:                           0.002     0.002   0.1% |
  diagonalize:                       0.002     0.002   0.1% |
  rotate_psi:                        0.004     0.004   0.1% |
 Density:                            0.698     0.000   0.0% |
  Atomic density matrices:           0.008     0.008   0.3% |
  Mix:                               0.269     0.269  11.1% |---|
  Multipole moments:                 0.000     0.000   0.0% |
  Pseudo density:                    0.421     0.067   2.8% ||
   Symmetrize density:               0.354     0.354  14.6% |-----|
 Hamiltonian:                        1.041     0.020   0.8% |
  Atomic:                            0.111     0.003   0.1% |
   XC Correction:                    0.108     0.108   4.5% |-|
  Calculate atomic Hamiltonians:     0.046     0.046   1.9% ||
  Communicate:                       0.000     0.000   0.0% |
  Poisson:                           0.006     0.006   0.3% |
  XC 3D grid:                        0.858     0.858  35.3% |-------------|
 Orthonormalize:                     0.001     0.000   0.0% |
  calc_s_matrix:                     0.000     0.000   0.0% |
  inverse-cholesky:                  0.000     0.000   0.0% |
  projections:                       0.000     0.000   0.0% |
  rotate_psi_s:                      0.000     0.000   0.0% |
Set symmetry:                        0.002     0.002   0.1% |
Other:                               0.056     0.056   2.3% ||
-----------------------------------------------------------
Total:                                         2.428 100.0%

Memory usage: 856.66 MiB
Date: Tue Feb  4 15:28:18 2025
