
  ___ ___ ___ _ _ _  
 |   |   |_  | | | | 
 | | | | | . | | | | 
 |__ |  _|___|_____|  25.1.0
 |___|_|             

User:   zoe@Zoes-MacBook-Air.local
Date:   Tue Feb  4 15:27:28 2025
Arch:   arm64
Pid:    79289
CWD:    /Users/zoe/Documents/Python/TIF320_Computitional_molecular_physics
Python: 3.12.2
gpaw:   /opt/anaconda3/envs/tif320env/lib/python3.12/site-packages/gpaw
_gpaw:  /opt/anaconda3/envs/tif320env/lib/python3.12/site-packages/
        _gpaw.cpython-312-darwin.so
ase:    /opt/anaconda3/envs/tif320env/lib/python3.12/site-packages/ase (version 3.24.0)
numpy:  /opt/anaconda3/envs/tif320env/lib/python3.12/site-packages/numpy (version 2.0.1)
scipy:  /opt/anaconda3/envs/tif320env/lib/python3.12/site-packages/scipy (version 1.15.1)
libxc:  7.0.0
units:  Angstrom and eV
cores: 1
OpenMP: False
OMP_NUM_THREADS: 1

Input parameters:
  basis: dzp
  mode: lcao
  xc: PBE

System changes: positions, numbers, cell, pbc, initial_charges, initial_magmoms 

Initialize ...

species:
  O:
    name: Oxygen
    id: 32ecd46bf208036f09c70b0ec9a88b78
    Z: 8.0
    valence: 6
    core: 2
    charge: 0.0
    file: /opt/anaconda3/envs/tif320env/gpaw-setups/gpaw-setups-24.11.0/O.PBE.gz
    compensation charges: {type: gauss,
                           rc: 0.21,
                           lmax: 2}
    cutoffs: {filter: 1.17,
              core: 0.83}
    projectors:
      #              energy  rcut
      - 2s(2.00)   -23.961   0.688
      - 2p(4.00)    -9.029   0.598
      -  s           3.251   0.688
      -  p          18.182   0.598
      -  d           0.000   0.619
  
    # LCAO basis set for O:
    #   Name: dzp
    #   File: /opt/anaconda3/envs/tif320env/gpaw-setups/gpaw-setups-24.11.0/O.dzp.basis.gz
    #   Number of radial functions: 5
    #   Number of spherical harmonics: 13
    #     l=0, rc=4.3438 Bohr: 2s-sz confined orbital
    #     l=1, rc=5.3906 Bohr: 2p-sz confined orbital
    #     l=0, rc=2.2969 Bohr: 2s-dz split-valence wave
    #     l=1, rc=2.8906 Bohr: 2p-dz split-valence wave
    #     l=2, rc=5.3906 Bohr: d-type Gaussian polarization
    #   Number of RI-basis functions 0

Reference energy: -2040.852301  # eV

Spin-polarized calculation.
Magnetic moment: 2.000000

Convergence criteria:
 Maximum [total energy] change in last 3 cyles: 0.0005 eV / valence electron
 Maximum integral of absolute [dens]ity change: 0.0001 electrons / valence electron
 Maximum integral of absolute [eigenst]ate change: 4e-08 eV^2 / valence electron
 Maximum number of scf [iter]ations: 333
 (Square brackets indicate name in SCF output, whereas a 'c' in
 the SCF output indicates the quantity has converged.)

Symmetries present (total): 48

  ( 1  0  0)  ( 1  0  0)  ( 1  0  0)  ( 1  0  0)  ( 1  0  0)  ( 1  0  0)
  ( 0  1  0)  ( 0  1  0)  ( 0  0  1)  ( 0  0  1)  ( 0  0 -1)  ( 0  0 -1)
  ( 0  0  1)  ( 0  0 -1)  ( 0  1  0)  ( 0 -1  0)  ( 0  1  0)  ( 0 -1  0)

  ( 1  0  0)  ( 1  0  0)  ( 0  1  0)  ( 0  1  0)  ( 0  1  0)  ( 0  1  0)
  ( 0 -1  0)  ( 0 -1  0)  ( 1  0  0)  ( 1  0  0)  ( 0  0  1)  ( 0  0  1)
  ( 0  0  1)  ( 0  0 -1)  ( 0  0  1)  ( 0  0 -1)  ( 1  0  0)  (-1  0  0)

  ( 0  1  0)  ( 0  1  0)  ( 0  1  0)  ( 0  1  0)  ( 0  0  1)  ( 0  0  1)
  ( 0  0 -1)  ( 0  0 -1)  (-1  0  0)  (-1  0  0)  ( 1  0  0)  ( 1  0  0)
  ( 1  0  0)  (-1  0  0)  ( 0  0  1)  ( 0  0 -1)  ( 0  1  0)  ( 0 -1  0)

  ( 0  0  1)  ( 0  0  1)  ( 0  0  1)  ( 0  0  1)  ( 0  0  1)  ( 0  0  1)
  ( 0  1  0)  ( 0  1  0)  ( 0 -1  0)  ( 0 -1  0)  (-1  0  0)  (-1  0  0)
  ( 1  0  0)  (-1  0  0)  ( 1  0  0)  (-1  0  0)  ( 0  1  0)  ( 0 -1  0)

  ( 0  0 -1)  ( 0  0 -1)  ( 0  0 -1)  ( 0  0 -1)  ( 0  0 -1)  ( 0  0 -1)
  ( 1  0  0)  ( 1  0  0)  ( 0  1  0)  ( 0  1  0)  ( 0 -1  0)  ( 0 -1  0)
  ( 0  1  0)  ( 0 -1  0)  ( 1  0  0)  (-1  0  0)  ( 1  0  0)  (-1  0  0)

  ( 0  0 -1)  ( 0  0 -1)  ( 0 -1  0)  ( 0 -1  0)  ( 0 -1  0)  ( 0 -1  0)
  (-1  0  0)  (-1  0  0)  ( 1  0  0)  ( 1  0  0)  ( 0  0  1)  ( 0  0  1)
  ( 0  1  0)  ( 0 -1  0)  ( 0  0  1)  ( 0  0 -1)  ( 1  0  0)  (-1  0  0)

  ( 0 -1  0)  ( 0 -1  0)  ( 0 -1  0)  ( 0 -1  0)  (-1  0  0)  (-1  0  0)
  ( 0  0 -1)  ( 0  0 -1)  (-1  0  0)  (-1  0  0)  ( 0  1  0)  ( 0  1  0)
  ( 1  0  0)  (-1  0  0)  ( 0  0  1)  ( 0  0 -1)  ( 0  0  1)  ( 0  0 -1)

  (-1  0  0)  (-1  0  0)  (-1  0  0)  (-1  0  0)  (-1  0  0)  (-1  0  0)
  ( 0  0  1)  ( 0  0  1)  ( 0  0 -1)  ( 0  0 -1)  ( 0 -1  0)  ( 0 -1  0)
  ( 0  1  0)  ( 0 -1  0)  ( 0  1  0)  ( 0 -1  0)  ( 0  0  1)  ( 0  0 -1)

1 k-point (Gamma)
1 k-point in the irreducible part of the Brillouin zone
       k-points in crystal coordinates                weights
   0:     0.00000000    0.00000000    0.00000000          1/1

Wave functions: LCAO
  Diagonalizer: Serial LAPACK
  Atomic Correction: dense with blas
  Data-type: float
 

Occupation numbers: # Zero width 

Eigensolver
   LCAO using direct dense diagonalizer 

Densities:
  Coarse grid: 40*40*40 grid
  Fine grid: 80*80*80 grid
  Total Charge: 0.000000 

Density mixing:
  Method: difference
  Backend: pulay
  Linear mixing parameter: 0.25
  old densities: 3
  Damping of long wavelength oscillations: 1  # (no daming) 

Hamiltonian:
  XC and Coulomb potentials evaluated on a 80*80*80 grid
  Using the PBE Exchange-Correlation functional
  Interpolation: tri-quintic (5. degree polynomial)
  Poisson solver: FastPoissonSolver using
    Stencil: 6*3+1=19 point O(h^6) finite-difference Laplacian
    FFT axes: []
    FST axes: [np.int64(0), np.int64(1), np.int64(2)]
 

XC parameters: PBE with 2 nearest neighbor stencil

Memory estimate:
  Process memory now: 659.48 MiB
  Calculator: 34.77 MiB
    Density: 21.68 MiB
      Arrays: 16.40 MiB
      Localized functions: 0.75 MiB
      Mixer: 4.53 MiB
    Hamiltonian: 12.24 MiB
      Arrays: 12.19 MiB
      XC: 0.00 MiB
      Poisson: 0.00 MiB
      vbar: 0.05 MiB
    Wavefunctions: 0.84 MiB
      C [qnM]: 0.00 MiB
      S, T [2 x qmm]: 0.00 MiB
      P [aqMi]: 0.00 MiB
      BasisFunctions: 0.84 MiB
      Eigensolver: 0.00 MiB

Total number of cores used: 1

Number of atoms: 1
Number of atomic orbitals: 13
Number of bands in calculation: 4
Number of valence electrons: 6
Bands to converge: occupied

... initialized

Initializing position-dependent things.

Density initialized from atomic densities
      .-------------------.  
     /|                   |  
    / |                   |  
   /  |                   |  
  /   |                   |  
 *    |                   |  
 |    |                   |  
 |    |       O           |  
 |    |                   |  
 |    |                   |  
 |    .-------------------.  
 |   /                   /   
 |  /                   /    
 | /                   /     
 |/                   /      
 *-------------------*       

Positions:
   0 O      4.000000    4.000000    4.000000    ( 0.0000,  0.0000,  2.0000)

Unit cell:
           periodic     x           y           z      points  spacing
  1. axis:    no     8.000000    0.000000    0.000000    40     0.2000
  2. axis:    no     0.000000    8.000000    0.000000    40     0.2000
  3. axis:    no     0.000000    0.000000    8.000000    40     0.2000

  Lengths:   8.000000   8.000000   8.000000
  Angles:   90.000000  90.000000  90.000000

Effective grid spacing dv^(1/3) = 0.2000

     iter     time        total  log10-change:  magmom
                         energy   eigst   dens
iter:   1 15:27:28    -0.920416        c          +1.9959
iter:   2 15:27:28    -0.915875        c -1.71    +1.9988
iter:   3 15:27:29    -0.914718        c -1.98    +2.0005
iter:   4 15:27:29    -0.914814c       c -3.16    +2.0002
iter:   5 15:27:29    -0.914806c       c -3.48    +2.0001
iter:   6 15:27:29    -0.914806c       c -4.49c   +2.0001

Converged after 6 iterations.

Dipole moment: (-0.000000, -0.000000, -0.000000) |e|*Ang

Total magnetic moment: (0.000000, 0.000000, 2.000050)
Local magnetic moments:
   0 O  ( 0.000000,  0.000000,  1.107003)

Energy contributions relative to reference atoms: (reference = -2040.852301)

Kinetic:         +4.300141
Potential:       -2.901047
External:        +0.000000
XC:              -2.623651
Entropy (-ST):   +0.000000
Local:           +0.309752
SIC:             +0.000000
--------------------------
Free energy:     -0.914806
Extrapolated:    -0.914806

Spin contamination: 0.000000 electrons
                   Up                     Down
 Band  Eigenvalues  Occupancy  Eigenvalues  Occupancy
    0    -24.52843    1.00000    -21.28560    1.00000
    1     -9.52341    1.00000     -6.49437    1.00000
    2     -9.52341    1.00000     -6.49437    0.00000
    3     -9.52341    1.00000     -6.49437    0.00000

Fermi level: -6.49437

Could not find a gap
Timing:                              incl.     excl.
-----------------------------------------------------------
Basic WFS set positions:             0.000     0.000   0.0% |
Basis functions set positions:       0.000     0.000   0.0% |
LCAO WFS Initialize:                 0.117     0.003   0.3% |
 Hamiltonian:                        0.115     0.000   0.0% |
  Atomic:                            0.012     0.000   0.0% |
   XC Correction:                    0.012     0.012   1.3% ||
  Calculate atomic Hamiltonians:     0.000     0.000   0.0% |
  Communicate:                       0.000     0.000   0.0% |
  Hartree integrate/restrict:        0.002     0.002   0.2% |
  Initialize Hamiltonian:            0.000     0.000   0.0% |
  Poisson:                           0.015     0.001   0.1% |
   Communicate from 1D:              0.002     0.002   0.2% |
   Communicate from 2D:              0.002     0.002   0.2% |
   Communicate to 1D:                0.002     0.002   0.2% |
   Communicate to 2D:                0.002     0.002   0.2% |
   FFT 1D:                           0.002     0.002   0.2% |
   FFT 2D:                           0.005     0.005   0.5% |
  XC 3D grid:                        0.084     0.084   8.6% |--|
  vbar:                              0.000     0.000   0.0% |
P tci:                               0.000     0.000   0.0% |
SCF-cycle:                           0.710     0.001   0.1% |
 Density:                            0.126     0.000   0.0% |
  Atomic density matrices:           0.001     0.001   0.2% |
  Mix:                               0.024     0.024   2.4% ||
  Multipole moments:                 0.000     0.000   0.0% |
  Normalize:                         0.000     0.000   0.0% |
  Pseudo density:                    0.101     0.000   0.0% |
   Calculate density matrix:         0.000     0.000   0.0% |
   Construct density:                0.007     0.007   0.7% |
   Symmetrize density:               0.093     0.093   9.5% |---|
 Hamiltonian:                        0.574     0.001   0.1% |
  Atomic:                            0.064     0.001   0.1% |
   XC Correction:                    0.063     0.063   6.5% |--|
  Calculate atomic Hamiltonians:     0.001     0.001   0.1% |
  Communicate:                       0.000     0.000   0.0% |
  Hartree integrate/restrict:        0.012     0.012   1.2% |
  Poisson:                           0.079     0.005   0.5% |
   Communicate from 1D:              0.009     0.009   1.0% |
   Communicate from 2D:              0.009     0.009   0.9% |
   Communicate to 1D:                0.011     0.011   1.1% |
   Communicate to 2D:                0.010     0.010   1.0% |
   FFT 1D:                           0.010     0.010   1.1% |
   FFT 2D:                           0.025     0.025   2.6% ||
  XC 3D grid:                        0.416     0.416  42.5% |----------------|
  vbar:                              0.001     0.001   0.1% |
 LCAO eigensolver:                   0.009     0.000   0.0% |
  Calculate projections:             0.000     0.000   0.0% |
  DenseAtomicCorrection:             0.000     0.000   0.0% |
  Distribute overlap matrix:         0.000     0.000   0.0% |
  Orbital Layouts:                   0.001     0.001   0.1% |
  Potential matrix:                  0.008     0.008   0.8% |
ST tci:                              0.000     0.000   0.0% |
Set symmetry:                        0.002     0.002   0.2% |
TCI: Evaluate splines:               0.016     0.016   1.6% ||
mktci:                               0.000     0.000   0.0% |
Other:                               0.132     0.132  13.5% |----|
-----------------------------------------------------------
Total:                                         0.978 100.0%

Memory usage: 659.58 MiB
Date: Tue Feb  4 15:27:29 2025
