
  ___ ___ ___ _ _ _  
 |   |   |_  | | | | 
 | | | | | . | | | | 
 |__ |  _|___|_____|  25.1.0
 |___|_|             

User:   zoe@Zoes-MacBook-Air.local
Date:   Tue Feb  4 15:27:58 2025
Arch:   arm64
Pid:    79289
CWD:    /Users/zoe/Documents/Python/TIF320_Computitional_molecular_physics
Python: 3.12.2
gpaw:   /opt/anaconda3/envs/tif320env/lib/python3.12/site-packages/gpaw
_gpaw:  /opt/anaconda3/envs/tif320env/lib/python3.12/site-packages/
        _gpaw.cpython-312-darwin.so
ase:    /opt/anaconda3/envs/tif320env/lib/python3.12/site-packages/ase (version 3.24.0)
numpy:  /opt/anaconda3/envs/tif320env/lib/python3.12/site-packages/numpy (version 2.0.1)
scipy:  /opt/anaconda3/envs/tif320env/lib/python3.12/site-packages/scipy (version 1.15.1)
libxc:  7.0.0
units:  Angstrom and eV
cores: 1
OpenMP: False
OMP_NUM_THREADS: 1

Input parameters:
  h: 0.22
  mode: fd

System changes: positions, numbers, cell, pbc, initial_charges, initial_magmoms 

Initialize ...

species:
  O:
    name: Oxygen
    id: 9b9d51c344dea68c822856295a461509
    Z: 8.0
    valence: 6
    core: 2
    charge: 0.0
    file: /opt/anaconda3/envs/tif320env/gpaw-setups/gpaw-setups-24.11.0/O.LDA.gz
    compensation charges: {type: gauss,
                           rc: 0.21,
                           lmax: 2}
    cutoffs: {filter: 1.17,
              core: 0.83}
    projectors:
      #              energy  rcut
      - 2s(2.00)   -23.752   0.688
      - 2p(4.00)    -9.195   0.598
      -  s           3.459   0.688
      -  p          18.016   0.598
      -  d           0.000   0.619
  
    # Using partial waves for O as LCAO basis

Reference energy: -2027.908068  # eV

Spin-polarized calculation.
Magnetic moment: 2.000000

Convergence criteria:
 Maximum [total energy] change in last 3 cyles: 0.0005 eV / valence electron
 Maximum integral of absolute [dens]ity change: 0.0001 electrons / valence electron
 Maximum integral of absolute [eigenst]ate change: 4e-08 eV^2 / valence electron
 Maximum number of scf [iter]ations: 333
 (Square brackets indicate name in SCF output, whereas a 'c' in
 the SCF output indicates the quantity has converged.)

Symmetries present (total): 48

  ( 1  0  0)  ( 1  0  0)  ( 1  0  0)  ( 1  0  0)  ( 1  0  0)  ( 1  0  0)
  ( 0  1  0)  ( 0  1  0)  ( 0  0  1)  ( 0  0  1)  ( 0  0 -1)  ( 0  0 -1)
  ( 0  0  1)  ( 0  0 -1)  ( 0  1  0)  ( 0 -1  0)  ( 0  1  0)  ( 0 -1  0)

  ( 1  0  0)  ( 1  0  0)  ( 0  1  0)  ( 0  1  0)  ( 0  1  0)  ( 0  1  0)
  ( 0 -1  0)  ( 0 -1  0)  ( 1  0  0)  ( 1  0  0)  ( 0  0  1)  ( 0  0  1)
  ( 0  0  1)  ( 0  0 -1)  ( 0  0  1)  ( 0  0 -1)  ( 1  0  0)  (-1  0  0)

  ( 0  1  0)  ( 0  1  0)  ( 0  1  0)  ( 0  1  0)  ( 0  0  1)  ( 0  0  1)
  ( 0  0 -1)  ( 0  0 -1)  (-1  0  0)  (-1  0  0)  ( 1  0  0)  ( 1  0  0)
  ( 1  0  0)  (-1  0  0)  ( 0  0  1)  ( 0  0 -1)  ( 0  1  0)  ( 0 -1  0)

  ( 0  0  1)  ( 0  0  1)  ( 0  0  1)  ( 0  0  1)  ( 0  0  1)  ( 0  0  1)
  ( 0  1  0)  ( 0  1  0)  ( 0 -1  0)  ( 0 -1  0)  (-1  0  0)  (-1  0  0)
  ( 1  0  0)  (-1  0  0)  ( 1  0  0)  (-1  0  0)  ( 0  1  0)  ( 0 -1  0)

  ( 0  0 -1)  ( 0  0 -1)  ( 0  0 -1)  ( 0  0 -1)  ( 0  0 -1)  ( 0  0 -1)
  ( 1  0  0)  ( 1  0  0)  ( 0  1  0)  ( 0  1  0)  ( 0 -1  0)  ( 0 -1  0)
  ( 0  1  0)  ( 0 -1  0)  ( 1  0  0)  (-1  0  0)  ( 1  0  0)  (-1  0  0)

  ( 0  0 -1)  ( 0  0 -1)  ( 0 -1  0)  ( 0 -1  0)  ( 0 -1  0)  ( 0 -1  0)
  (-1  0  0)  (-1  0  0)  ( 1  0  0)  ( 1  0  0)  ( 0  0  1)  ( 0  0  1)
  ( 0  1  0)  ( 0 -1  0)  ( 0  0  1)  ( 0  0 -1)  ( 1  0  0)  (-1  0  0)

  ( 0 -1  0)  ( 0 -1  0)  ( 0 -1  0)  ( 0 -1  0)  (-1  0  0)  (-1  0  0)
  ( 0  0 -1)  ( 0  0 -1)  (-1  0  0)  (-1  0  0)  ( 0  1  0)  ( 0  1  0)
  ( 1  0  0)  (-1  0  0)  ( 0  0  1)  ( 0  0 -1)  ( 0  0  1)  ( 0  0 -1)

  (-1  0  0)  (-1  0  0)  (-1  0  0)  (-1  0  0)  (-1  0  0)  (-1  0  0)
  ( 0  0  1)  ( 0  0  1)  ( 0  0 -1)  ( 0  0 -1)  ( 0 -1  0)  ( 0 -1  0)
  ( 0  1  0)  ( 0 -1  0)  ( 0  1  0)  ( 0 -1  0)  ( 0  0  1)  ( 0  0 -1)

1 k-point (Gamma)
1 k-point in the irreducible part of the Brillouin zone
       k-points in crystal coordinates                weights
   0:     0.00000000    0.00000000    0.00000000          1/1

Wave functions: Uniform real-space grid
  Kinetic energy operator: 6*3+1=19 point O(h^6) finite-difference Laplacian
  ScaLapack parameters: grid=1x1, blocksize=None
  Wavefunction extrapolation:
    Improved wavefunction reuse through dual PAW basis 

Occupation numbers: # Zero width 

Eigensolver
   Davidson(niter=2) 

Densities:
  Coarse grid: 36*36*36 grid
  Fine grid: 72*72*72 grid
  Total Charge: 0.000000 

Density mixing:
  Method: difference
  Backend: pulay
  Linear mixing parameter: 0.25
  old densities: 3
  Damping of long wavelength oscillations: 1  # (no daming) 

Hamiltonian:
  XC and Coulomb potentials evaluated on a 72*72*72 grid
  Using the LDA Exchange-Correlation functional
  Interpolation: tri-quintic (5. degree polynomial)
  Poisson solver: FastPoissonSolver using
    Stencil: 6*3+1=19 point O(h^6) finite-difference Laplacian
    FFT axes: []
    FST axes: [np.int64(0), np.int64(1), np.int64(2)]
 

Memory estimate:
  Process memory now: 856.66 MiB
  Calculator: 30.23 MiB
    Density: 15.72 MiB
      Arrays: 11.90 MiB
      Localized functions: 0.55 MiB
      Mixer: 3.27 MiB
    Hamiltonian: 8.88 MiB
      Arrays: 8.85 MiB
      XC: 0.00 MiB
      Poisson: 0.00 MiB
      vbar: 0.04 MiB
    Wavefunctions: 5.62 MiB
      Arrays psit_nG: 2.62 MiB
      Eigensolver: 2.95 MiB
      Projections: 0.00 MiB
      Projectors: 0.06 MiB

Total number of cores used: 1

Number of atoms: 1
Number of atomic orbitals: 4
Number of bands in calculation: 4
Number of valence electrons: 6
Bands to converge: occupied

... initialized

Initializing position-dependent things.

Density initialized from atomic densities
Creating initial wave functions:
  4 bands from LCAO basis set

      .-------------------.  
     /|                   |  
    / |                   |  
   /  |                   |  
  /   |                   |  
 *    |                   |  
 |    |                   |  
 |    |       O           |  
 |    |                   |  
 |    |                   |  
 |    .-------------------.  
 |   /                   /   
 |  /                   /    
 | /                   /     
 |/                   /      
 *-------------------*       

Positions:
   0 O      4.000000    4.000000    4.000000    ( 0.0000,  0.0000,  2.0000)

Unit cell:
           periodic     x           y           z      points  spacing
  1. axis:    no     8.000000    0.000000    0.000000    36     0.2222
  2. axis:    no     0.000000    8.000000    0.000000    36     0.2222
  3. axis:    no     0.000000    0.000000    8.000000    36     0.2222

  Lengths:   8.000000   8.000000   8.000000
  Angles:   90.000000  90.000000  90.000000

Effective grid spacing dv^(1/3) = 0.2222

     iter     time        total  log10-change:  magmom
                         energy   eigst   dens
iter:   1 15:27:58    -1.978763                   +1.9997
iter:   2 15:27:58    -1.982440   -0.73  -1.87    +1.9999
iter:   3 15:27:58    -1.980515   -0.92  -2.04    +2.0000
iter:   4 15:27:58    -1.979677c  -2.19  -2.18    +2.0000
iter:   5 15:27:58    -1.982136c  -1.98  -2.34    +2.0000
iter:   6 15:27:58    -1.979558c  -1.81  -2.14    +2.0000
iter:   7 15:27:59    -1.979461c  -3.06  -2.87    +2.0000
iter:   8 15:27:59    -1.979485c  -3.58  -3.41    +2.0000
iter:   9 15:27:59    -1.979483c  -4.51  -3.49    +2.0000
iter:  10 15:27:59    -1.979489c  -4.50  -3.76    +2.0000
iter:  11 15:27:59    -1.979482c  -4.41  -3.45    +2.0000
iter:  12 15:27:59    -1.979483c  -5.52  -4.18c   +2.0000
iter:  13 15:27:59    -1.979483c  -6.02  -4.55c   +2.0000
iter:  14 15:27:59    -1.979483c  -6.97  -5.55c   +2.0000
iter:  15 15:27:59    -1.979483c  -7.46c -5.70c   +2.0000

Converged after 15 iterations.

Dipole moment: (-0.000000, -0.000000, -0.000000) |e|*Ang

Total magnetic moment: (0.000000, 0.000000, 2.000000)
Local magnetic moments:
   0 O  ( 0.000000,  0.000000,  1.136641)

Energy contributions relative to reference atoms: (reference = -2027.908068)

Kinetic:         +5.561132
Potential:       -6.069039
External:        +0.000000
XC:              -2.154788
Entropy (-ST):   +0.000000
Local:           +0.683213
SIC:             +0.000000
--------------------------
Free energy:     -1.979483
Extrapolated:    -1.979483

Spin contamination: 0.000074 electrons
                   Up                     Down
 Band  Eigenvalues  Occupancy  Eigenvalues  Occupancy
    0    -24.81037    1.00000    -21.72011    1.00000
    1    -10.36800    1.00000     -7.41142    1.00000
    2    -10.36800    1.00000     -7.41142    0.00000
    3    -10.36800    1.00000     -7.41142    0.00000

Fermi level: -7.41142

Could not find a gap
Timing:                              incl.     excl.
-----------------------------------------------------------
Hamiltonian:                         0.046     0.000   0.0% |
 Atomic:                             0.004     0.000   0.0% |
  XC Correction:                     0.004     0.004   0.3% |
 Calculate atomic Hamiltonians:      0.000     0.000   0.0% |
 Communicate:                        0.000     0.000   0.0% |
 Hartree integrate/restrict:         0.001     0.001   0.1% |
 Initialize Hamiltonian:             0.000     0.000   0.0% |
 Poisson:                            0.012     0.000   0.0% |
  Communicate from 1D:               0.001     0.001   0.1% |
  Communicate from 2D:               0.001     0.001   0.1% |
  Communicate to 1D:                 0.002     0.002   0.1% |
  Communicate to 2D:                 0.002     0.002   0.1% |
  FFT 1D:                            0.002     0.002   0.1% |
  FFT 2D:                            0.004     0.004   0.3% |
 XC 3D grid:                         0.027     0.027   1.8% ||
 vbar:                               0.000     0.000   0.0% |
LCAO initialization:                 0.006     0.003   0.2% |
 LCAO eigensolver:                   0.001     0.000   0.0% |
  Calculate projections:             0.000     0.000   0.0% |
  DenseAtomicCorrection:             0.000     0.000   0.0% |
  Distribute overlap matrix:         0.000     0.000   0.0% |
  Orbital Layouts:                   0.000     0.000   0.0% |
  Potential matrix:                  0.001     0.001   0.1% |
 LCAO to grid:                       0.001     0.001   0.1% |
 Set positions (LCAO WFS):           0.001     0.000   0.0% |
  Basic WFS set positions:           0.000     0.000   0.0% |
  Basis functions set positions:     0.000     0.000   0.0% |
  P tci:                             0.000     0.000   0.0% |
  ST tci:                            0.000     0.000   0.0% |
  mktci:                             0.000     0.000   0.0% |
SCF-cycle:                           1.349     0.005   0.3% |
 Davidson:                           0.445     0.164  10.9% |---|
  Apply hamiltonian:                 0.046     0.046   3.1% ||
  Subspace diag:                     0.059     0.000   0.0% |
   calc_h_matrix:                    0.051     0.008   0.6% |
    Apply hamiltonian:               0.042     0.042   2.8% ||
   diagonalize:                      0.001     0.001   0.1% |
   rotate_psi:                       0.007     0.007   0.5% |
  calc. matrices:                    0.159     0.074   4.9% |-|
   Apply hamiltonian:                0.085     0.085   5.7% |-|
  diagonalize:                       0.002     0.002   0.1% |
  rotate_psi:                        0.015     0.015   1.0% |
 Density:                            0.243     0.000   0.0% |
  Atomic density matrices:           0.004     0.004   0.3% |
  Mix:                               0.045     0.045   3.0% ||
  Multipole moments:                 0.000     0.000   0.0% |
  Pseudo density:                    0.194     0.002   0.1% |
   Symmetrize density:               0.192     0.192  12.8% |----|
 Hamiltonian:                        0.655     0.001   0.1% |
  Atomic:                            0.060     0.002   0.1% |
   XC Correction:                    0.058     0.058   3.9% |-|
  Calculate atomic Hamiltonians:     0.002     0.002   0.1% |
  Communicate:                       0.000     0.000   0.0% |
  Hartree integrate/restrict:        0.022     0.022   1.4% ||
  Poisson:                           0.170     0.009   0.6% |
   Communicate from 1D:              0.020     0.020   1.3% ||
   Communicate from 2D:              0.019     0.019   1.3% ||
   Communicate to 1D:                0.024     0.024   1.6% ||
   Communicate to 2D:                0.020     0.020   1.3% ||
   FFT 1D:                           0.023     0.023   1.5% ||
   FFT 2D:                           0.056     0.056   3.7% ||
  XC 3D grid:                        0.399     0.399  26.6% |----------|
  vbar:                              0.002     0.002   0.1% |
 Orthonormalize:                     0.001     0.000   0.0% |
  calc_s_matrix:                     0.000     0.000   0.0% |
  inverse-cholesky:                  0.000     0.000   0.0% |
  projections:                       0.000     0.000   0.0% |
  rotate_psi_s:                      0.000     0.000   0.0% |
Set symmetry:                        0.002     0.002   0.1% |
Other:                               0.098     0.098   6.5% |--|
-----------------------------------------------------------
Total:                                         1.501 100.0%

Memory usage: 856.66 MiB
Date: Tue Feb  4 15:27:59 2025
