
  ___ ___ ___ _ _ _  
 |   |   |_  | | | | 
 | | | | | . | | | | 
 |__ |  _|___|_____|  25.1.0
 |___|_|             

User:   zoe@Zoes-MacBook-Air.local
Date:   Tue Feb  4 15:28:11 2025
Arch:   arm64
Pid:    79289
CWD:    /Users/zoe/Documents/Python/TIF320_Computitional_molecular_physics
Python: 3.12.2
gpaw:   /opt/anaconda3/envs/tif320env/lib/python3.12/site-packages/gpaw
_gpaw:  /opt/anaconda3/envs/tif320env/lib/python3.12/site-packages/
        _gpaw.cpython-312-darwin.so
ase:    /opt/anaconda3/envs/tif320env/lib/python3.12/site-packages/ase (version 3.24.0)
numpy:  /opt/anaconda3/envs/tif320env/lib/python3.12/site-packages/numpy (version 2.0.1)
scipy:  /opt/anaconda3/envs/tif320env/lib/python3.12/site-packages/scipy (version 1.15.1)
libxc:  7.0.0
units:  Angstrom and eV
cores: 1
OpenMP: False
OMP_NUM_THREADS: 1

Input parameters:
  mode: {ecut: 300.0,
         name: pw}

System changes: positions, numbers, cell, pbc, initial_charges, initial_magmoms 

Initialize ...

species:
  O:
    name: Oxygen
    id: 9b9d51c344dea68c822856295a461509
    Z: 8.0
    valence: 6
    core: 2
    charge: 0.0
    file: /opt/anaconda3/envs/tif320env/gpaw-setups/gpaw-setups-24.11.0/O.LDA.gz
    compensation charges: {type: gauss,
                           rc: 0.21,
                           lmax: 2}
    cutoffs: {filter: 1.17,
              core: 0.83}
    projectors:
      #              energy  rcut
      - 2s(2.00)   -23.752   0.688
      - 2p(4.00)    -9.195   0.598
      -  s           3.459   0.688
      -  p          18.016   0.598
      -  d           0.000   0.619
  
    # Using partial waves for O as LCAO basis

Reference energy: -2027.908068  # eV

Spin-polarized calculation.
Magnetic moment: 2.000000

Convergence criteria:
 Maximum [total energy] change in last 3 cyles: 0.0005 eV / valence electron
 Maximum integral of absolute [dens]ity change: 0.0001 electrons / valence electron
 Maximum integral of absolute [eigenst]ate change: 4e-08 eV^2 / valence electron
 Maximum number of scf [iter]ations: 333
 (Square brackets indicate name in SCF output, whereas a 'c' in
 the SCF output indicates the quantity has converged.)

Symmetries present (total): 48

  ( 1  0  0)  ( 1  0  0)  ( 1  0  0)  ( 1  0  0)  ( 1  0  0)  ( 1  0  0)
  ( 0  1  0)  ( 0  1  0)  ( 0  0  1)  ( 0  0  1)  ( 0  0 -1)  ( 0  0 -1)
  ( 0  0  1)  ( 0  0 -1)  ( 0  1  0)  ( 0 -1  0)  ( 0  1  0)  ( 0 -1  0)

  ( 1  0  0)  ( 1  0  0)  ( 0  1  0)  ( 0  1  0)  ( 0  1  0)  ( 0  1  0)
  ( 0 -1  0)  ( 0 -1  0)  ( 1  0  0)  ( 1  0  0)  ( 0  0  1)  ( 0  0  1)
  ( 0  0  1)  ( 0  0 -1)  ( 0  0  1)  ( 0  0 -1)  ( 1  0  0)  (-1  0  0)

  ( 0  1  0)  ( 0  1  0)  ( 0  1  0)  ( 0  1  0)  ( 0  0  1)  ( 0  0  1)
  ( 0  0 -1)  ( 0  0 -1)  (-1  0  0)  (-1  0  0)  ( 1  0  0)  ( 1  0  0)
  ( 1  0  0)  (-1  0  0)  ( 0  0  1)  ( 0  0 -1)  ( 0  1  0)  ( 0 -1  0)

  ( 0  0  1)  ( 0  0  1)  ( 0  0  1)  ( 0  0  1)  ( 0  0  1)  ( 0  0  1)
  ( 0  1  0)  ( 0  1  0)  ( 0 -1  0)  ( 0 -1  0)  (-1  0  0)  (-1  0  0)
  ( 1  0  0)  (-1  0  0)  ( 1  0  0)  (-1  0  0)  ( 0  1  0)  ( 0 -1  0)

  ( 0  0 -1)  ( 0  0 -1)  ( 0  0 -1)  ( 0  0 -1)  ( 0  0 -1)  ( 0  0 -1)
  ( 1  0  0)  ( 1  0  0)  ( 0  1  0)  ( 0  1  0)  ( 0 -1  0)  ( 0 -1  0)
  ( 0  1  0)  ( 0 -1  0)  ( 1  0  0)  (-1  0  0)  ( 1  0  0)  (-1  0  0)

  ( 0  0 -1)  ( 0  0 -1)  ( 0 -1  0)  ( 0 -1  0)  ( 0 -1  0)  ( 0 -1  0)
  (-1  0  0)  (-1  0  0)  ( 1  0  0)  ( 1  0  0)  ( 0  0  1)  ( 0  0  1)
  ( 0  1  0)  ( 0 -1  0)  ( 0  0  1)  ( 0  0 -1)  ( 1  0  0)  (-1  0  0)

  ( 0 -1  0)  ( 0 -1  0)  ( 0 -1  0)  ( 0 -1  0)  (-1  0  0)  (-1  0  0)
  ( 0  0 -1)  ( 0  0 -1)  (-1  0  0)  (-1  0  0)  ( 0  1  0)  ( 0  1  0)
  ( 1  0  0)  (-1  0  0)  ( 0  0  1)  ( 0  0 -1)  ( 0  0  1)  ( 0  0 -1)

  (-1  0  0)  (-1  0  0)  (-1  0  0)  (-1  0  0)  (-1  0  0)  (-1  0  0)
  ( 0  0  1)  ( 0  0  1)  ( 0  0 -1)  ( 0  0 -1)  ( 0 -1  0)  ( 0 -1  0)
  ( 0  1  0)  ( 0 -1  0)  ( 0  1  0)  ( 0 -1  0)  ( 0  0  1)  ( 0  0 -1)

1 k-point (Gamma)
1 k-point in the irreducible part of the Brillouin zone
       k-points in crystal coordinates                weights
   0:     0.00000000    0.00000000    0.00000000          1/1

Wave functions: Plane wave expansion
  Cutoff energy: 300.000 eV
  Number of coefficients: 6031 (reduced to 3016)
  Pulay-stress correction: 0.000000 eV/Ang^3 (de/decut=0.000000)
  Using Numpy's FFT
  ScaLapack parameters: grid=1x1, blocksize=None
  Wavefunction extrapolation:
    Improved wavefunction reuse through dual PAW basis 

Occupation numbers: # Zero width 

Eigensolver
   Davidson(niter=2) 

Densities:
  Coarse grid: 32*32*32 grid
  Fine grid: 64*64*64 grid
  Total Charge: 0.000000 

Density mixing:
  Method: difference
  Backend: pulay
  Linear mixing parameter: 0.05
  old densities: 5
  Damping of long wavelength oscillations: 50 

Hamiltonian:
  XC and Coulomb potentials evaluated on a 64*64*64 grid
  Using the LDA Exchange-Correlation functional
  External potential:
    NoExternalPotential
 

Memory estimate:
  Process memory now: 856.66 MiB
  Calculator: 27.07 MiB
    Density: 18.64 MiB
      Arrays: 8.75 MiB
      Localized functions: 6.39 MiB
      Mixer: 3.50 MiB
    Hamiltonian: 6.63 MiB
      Arrays: 6.50 MiB
      XC: 0.00 MiB
      Poisson: 0.00 MiB
      vbar: 0.13 MiB
    Wavefunctions: 1.80 MiB
      Arrays psit_nG: 0.37 MiB
      Eigensolver: 0.42 MiB
      Projections: 0.00 MiB
      Projectors: 0.32 MiB
      PW-descriptor: 0.69 MiB

Total number of cores used: 1

Number of atoms: 1
Number of atomic orbitals: 4
Number of bands in calculation: 4
Number of valence electrons: 6
Bands to converge: occupied

... initialized

Initializing position-dependent things.

Density initialized from atomic densities
Creating initial wave functions:
  4 bands from LCAO basis set

      .-------------------.  
     /|                   |  
    / |                   |  
   /  |                   |  
  /   |                   |  
 *    |                   |  
 |    |                   |  
 |    |       O           |  
 |    |                   |  
 |    |                   |  
 |    .-------------------.  
 |   /                   /   
 |  /                   /    
 | /                   /     
 |/                   /      
 *-------------------*       

Positions:
   0 O      4.000000    4.000000    4.000000    ( 0.0000,  0.0000,  2.0000)

Unit cell:
           periodic     x           y           z      points  spacing
  1. axis:    no     8.000000    0.000000    0.000000    32     0.2500
  2. axis:    no     0.000000    8.000000    0.000000    32     0.2500
  3. axis:    no     0.000000    0.000000    8.000000    32     0.2500

  Lengths:   8.000000   8.000000   8.000000
  Angles:   90.000000  90.000000  90.000000

Effective grid spacing dv^(1/3) = 0.2500

     iter     time        total  log10-change:  magmom
                         energy   eigst   dens
iter:   1 15:28:11     5.061309                   +1.9995
iter:   2 15:28:11     5.095938   -1.78  -1.12    +1.9999
iter:   3 15:28:11     5.329500   -0.72  -1.14    +2.0000
iter:   4 15:28:11     5.337909   -2.13  -1.30    +2.0000
iter:   5 15:28:11     5.028749   -1.18  -1.30    +2.0000
iter:   6 15:28:11     5.383144   -1.08  -1.02    +2.0000
iter:   7 15:28:12     5.375070   -1.71  -2.04    +2.0000
iter:   8 15:28:12     5.369386   -2.10  -2.15    +2.0000
iter:   9 15:28:12     5.368425   -2.97  -1.79    +2.0000
iter:  10 15:28:12     5.366506c  -3.50  -1.81    +2.0000
iter:  11 15:28:12     5.377041   -2.71  -1.78    +2.0000
iter:  12 15:28:12     5.377168   -3.49  -2.31    +2.0000
iter:  13 15:28:12     5.377046c  -4.72  -2.43    +2.0000
iter:  14 15:28:12     5.377231c  -3.24  -2.43    +2.0000
iter:  15 15:28:12     5.377264c  -4.29  -2.67    +2.0000
iter:  16 15:28:12     5.377331c  -4.83  -2.76    +2.0000
iter:  17 15:28:12     5.377326c  -4.45  -3.01    +2.0000
iter:  18 15:28:12     5.377348c  -4.95  -3.22    +2.0000
iter:  19 15:28:12     5.377342c  -5.39  -3.44    +2.0000
iter:  20 15:28:12     5.377347c  -5.43  -3.26    +2.0000
iter:  21 15:28:13     5.377349c  -6.26  -4.84c   +2.0000
iter:  22 15:28:13     5.377352c  -6.67  -4.44c   +2.0000
iter:  23 15:28:13     5.377351c  -7.18  -4.20c   +2.0000
iter:  24 15:28:13     5.377351c  -8.00c -5.25c   +2.0000

Converged after 24 iterations.

Dipole moment: (0.000000, 0.000000, 0.000000) |e|*Ang

Total magnetic moment: (0.000000, 0.000000, 2.000000)
Local magnetic moments:
   0 O  ( 0.000000,  0.000000,  1.052591)

Energy contributions relative to reference atoms: (reference = -2027.908068)

Kinetic:        -25.438801
Potential:      +29.982718
External:        +0.000000
XC:              +0.927536
Entropy (-ST):   +0.000000
Local:           -0.094101
SIC:             +0.000000
--------------------------
Free energy:     +5.377351
Extrapolated:    +5.377351

Spin contamination: 0.007779 electrons
                   Up                     Down
 Band  Eigenvalues  Occupancy  Eigenvalues  Occupancy
    0    -26.29112    1.00000    -23.20843    1.00000
    1     -9.88637    1.00000     -7.09715    1.00000
    2     -9.88637    1.00000     -7.09715    0.00000
    3     -9.88637    1.00000     -7.09715    0.00000

Fermi level: -7.09715

Could not find a gap
Timing:                              incl.     excl.
-----------------------------------------------------------
Hamiltonian:                         0.032     0.000   0.0% |
 Atomic:                             0.004     0.000   0.0% |
  XC Correction:                     0.004     0.004   0.2% |
 Calculate atomic Hamiltonians:      0.001     0.001   0.1% |
 Communicate:                        0.000     0.000   0.0% |
 Initialize Hamiltonian:             0.000     0.000   0.0% |
 Poisson:                            0.000     0.000   0.0% |
 XC 3D grid:                         0.025     0.025   1.5% ||
LCAO initialization:                 0.007     0.003   0.2% |
 LCAO eigensolver:                   0.001     0.000   0.0% |
  Calculate projections:             0.000     0.000   0.0% |
  DenseAtomicCorrection:             0.000     0.000   0.0% |
  Distribute overlap matrix:         0.000     0.000   0.0% |
  Orbital Layouts:                   0.000     0.000   0.0% |
  Potential matrix:                  0.001     0.001   0.0% |
 LCAO to grid:                       0.002     0.002   0.1% |
 Set positions (LCAO WFS):           0.001     0.000   0.0% |
  Basic WFS set positions:           0.000     0.000   0.0% |
  Basis functions set positions:     0.000     0.000   0.0% |
  P tci:                             0.000     0.000   0.0% |
  ST tci:                            0.000     0.000   0.0% |
  mktci:                             0.001     0.001   0.0% |
PWDescriptor:                        0.000     0.000   0.0% |
SCF-cycle:                           1.634     0.004   0.2% |
 Davidson:                           0.419     0.034   2.0% ||
  Apply H:                           0.084     0.084   4.9% |-|
   HMM T:                            0.001     0.001   0.0% |
  Subspace diag:                     0.104     0.001   0.0% |
   calc_h_matrix:                    0.100     0.004   0.2% |
    Apply H:                         0.096     0.095   5.5% |-|
     HMM T:                          0.001     0.001   0.1% |
   diagonalize:                      0.002     0.002   0.1% |
   rotate_psi:                       0.002     0.002   0.1% |
  calc. matrices:                    0.192     0.017   1.0% |
   Apply H:                          0.175     0.171  10.0% |---|
    HMM T:                           0.003     0.003   0.2% |
  diagonalize:                       0.002     0.002   0.1% |
  rotate_psi:                        0.003     0.003   0.2% |
 Density:                            0.483     0.000   0.0% |
  Atomic density matrices:           0.007     0.007   0.4% |
  Mix:                               0.189     0.189  11.0% |---|
  Multipole moments:                 0.000     0.000   0.0% |
  Pseudo density:                    0.287     0.046   2.7% ||
   Symmetrize density:               0.241     0.241  14.0% |-----|
 Hamiltonian:                        0.726     0.015   0.9% |
  Atomic:                            0.098     0.003   0.1% |
   XC Correction:                    0.096     0.096   5.6% |-|
  Calculate atomic Hamiltonians:     0.034     0.034   2.0% ||
  Communicate:                       0.000     0.000   0.0% |
  Poisson:                           0.006     0.006   0.4% |
  XC 3D grid:                        0.573     0.573  33.3% |------------|
 Orthonormalize:                     0.000     0.000   0.0% |
  calc_s_matrix:                     0.000     0.000   0.0% |
  inverse-cholesky:                  0.000     0.000   0.0% |
  projections:                       0.000     0.000   0.0% |
  rotate_psi_s:                      0.000     0.000   0.0% |
Set symmetry:                        0.002     0.002   0.1% |
Other:                               0.044     0.044   2.6% ||
-----------------------------------------------------------
Total:                                         1.719 100.0%

Memory usage: 856.66 MiB
Date: Tue Feb  4 15:28:13 2025
